<?xml version="1.0"?>
<VTKFile type="UnstructuredGrid" version="2.2">
  <UnstructuredGrid>
    <Piece NumberOfPoints="320" NumberOfCells="20">
      <Points>
        <DataArray type="Float64" NumberOfComponents="3" format="ascii">0.2500000000000006 0.2500000000000006 0 0.2999999999999998 0.2499999999999999 0 0.2499999999999998 0.4999999999999998 0 0.3000000000000002 0.5000000000000004 0 0.2666666666666666 0.2500000000000001 0 0.2833333333333333 0.2500000000000001 0 0.2500000000000001 0.3333333333333334 0 0.2499999999999999 0.4166666666666665 0 0.3 0.3333333333333334 0 0.2999999999999997 0.4166666666666665 0 0.2666666666666666 0.4999999999999999 0 0.2833333333333329 0.4999999999999996 0 0.2666666666666667 0.3333333333333335 0 0.2833333333333333 0.3333333333333334 0 0.2666666666666668 0.4166666666666669 0 0.2833333333333331 0.4166666666666664 0 0.3000000000000005 0.2500000000000006 0 0.5 0.2499999999999999 0 0.2999999999999997 0.4999999999999997 0 0.5000000000000003 0.3000000000000003 0 0.3666666666666666 0.2500000000000001 0 0.4333333333333334 0.2500000000000001 0 0.3 0.3333333333333334 0 0.2999999999999998 0.4166666666666666 0 0.5 0.2666666666666668 0 0.4999999999999998 0.2833333333333332 0 0.3666666666666665 0.350928801500014 0 0.4333333333333329 0.3114381916835869 0 0.3666666666666668 0.2836429338333381 0 0.4333333333333334 0.2704793972278625 0 0.3666666666666668 0.3172858676666762 0 0.4333333333333331 0.2909587944557246 0 0.5000000000000011 0.2500000000000005 0 0.6999999999999998 0.2499999999999999 0 0.4999999999999997 0.2999999999999998 0 0.7000000000000005 0.4999999973658224 0 0.5666666666666667 0.2500000000000001 0 0.6333333333333335 0.2500000000000001 0 0.5000000000000001 0.2666666666666667 0 0.4999999999999999 0.2833333333333332 0 0.7000000000000003 0.3333333324552741 0 0.6999999999999998 0.4166666649105479 0 0.5666666666666665 0.3114381916835871 0 0.6333333333333329 0.3509288015000137 0 0.566666666666667 0.2704793972278625 0 0.6333333333333335 0.2836429338333381 0 0.566666666666667 0.290958794455725 0 0.6333333333333331 0.3172858676666758 0 0.7000000000000015 0.2500000000000006 0 0.7499999999999996 0.2499999999999999 0 0.6999999999999997 0.4999999999999998 0 0.7500000000000007 0.5000000000000004 0 0.7166666666666668 0.2500000000000001 0 0.7333333333333336 0.2500000000000001 0 0.7000000000000002 0.3333333333333334 0 0.7 0.4166666666666665 0 0.7500000000000002 0.3333333333333334 0 0.7499999999999996 0.4166666666666665 0 0.7166666666666667 0.4999999999999999 0 0.7333333333333327 0.4999999999999996 0 0.7166666666666672 0.3333333333333335 0 0.7333333333333336 0.3333333333333334 0 0.7166666666666672 0.4166666666666669 0 0.7333333333333331 0.4166666666666664 0 0.2500000000000006 0.5000000000000011 0 0.2999999999999998 0.4999999999999997 0 0.2499999999999998 0.7499999999999996 0 0.3000000000000002 0.7500000000000007 0 0.2666666666666666 0.5000000000000001 0 0.2833333333333334 0.5000000000000001 0 0.2500000000000001 0.5833333333333335 0 0.2499999999999999 0.6666666666666664 0 0.3 0.5833333333333336 0 0.2999999999999997 0.6666666666666664 0 0.2666666666666666 0.7499999999999998 0 0.283333333333333 0.7499999999999993 0 0.2666666666666667 0.5833333333333337 0 0.2833333333333333 0.5833333333333336 0 0.2666666666666668 0.666666666666667 0 0.2833333333333332 0.6666666666666663 0 0.3000000000000005 0.5000000000000012 0 0.5 0.6999999999999996 0 0.2999999999999997 0.7499999999999997 0 0.5000000000000003 0.7500000000000006 0 0.3666666666666666 0.649071198499986 0 0.4333333333333334 0.6885618083164129 0 0.3 0.5833333333333335 0 0.2999999999999998 0.6666666666666665 0 0.5 0.716666666666667 0 0.4999999999999998 0.7333333333333331 0 0.3666666666666665 0.7499999999999999 0 0.4333333333333329 0.7499999999999993 0 0.3666666666666668 0.6827141323333245 0 0.4333333333333334 0.7090412055442754 0 0.3666666666666668 0.7163570661666625 0 0.4333333333333331 0.7295206027721373 0 0.7000000000000014 0.5000000000000011 0 0.7499999999999996 0.4999999999999997 0 0.5000000013170888 0.6999999999999996 0 0.7500000000000006 0.7000000000000007 0 0.7166666666666668 0.5000000000000001 0 0.7333333333333335 0.5000000000000001 0 0.6885618083164129 0.5666666666666668 0 0.649071198499986 0.6333333333333332 0 0.7500000000000002 0.5666666666666669 0 0.7499999999999996 0.6333333333333332 0 0.5833333342113926 0.7 0 0.6666666671056956 0.6999999999999994 0 0.7090412055442756 0.5666666666666669 0 0.7295206027721378 0.5666666666666669 0 0.6827141323333245 0.6333333333333337 0 0.7163570661666617 0.6333333333333331 0 0.5000000000000011 0.7000000000000015 0 0.7499999999999998 0.6999999999999996 0 0.4999999999999996 0.7499999999999997 0 0.7500000000000004 0.7500000000000007 0 0.5833333333333334 0.7000000000000002 0 0.6666666666666667 0.7000000000000003 0 0.5000000000000001 0.7166666666666669 0 0.4999999999999999 0.7333333333333333 0 0.7500000000000002 0.716666666666667 0 0.7499999999999998 0.7333333333333329 0 0.5833333333333333 0.7499999999999999 0 0.6666666666666661 0.7499999999999992 0 0.5833333333333337 0.7166666666666672 0 0.6666666666666669 0.716666666666667 0 0.5833333333333337 0.7333333333333338 0 0.6666666666666663 0.7333333333333331 0 5.204170427930421e-17 8.847089727481715e-17 0 0.2500000000000001 3.353798720221827e-17 0 1.098658201451978e-17 0.25 0 0.2500000000000001 0.2500000000000001 0 0.08333333333333336 8.178379666401029e-17 0 0.1666666666666667 3.617739970241259e-17 0 4.280255587116242e-17 0.08333333333333337 0 -4.800672629909284e-17 0.1666666666666666 0 0.25 0.08333333333333334 0 0.25 0.1666666666666667 0 0.0833333333333333 0.2499999999999999 0 0.1666666666666666 0.2499999999999999 0 0.0833333333333334 0.08333333333333338 0 0.1666666666666667 0.08333333333333334 0 0.08333333333333341 0.1666666666666667 0 0.1666666666666666 0.1666666666666666 0 0.2500000000000006 8.847089727481715e-17 0 0.5 3.353798720221827e-17 0 0.2499999999999998 0.25 0 0.5000000000000004 0.2500000000000001 0 0.3333333333333334 8.178379666401029e-17 0 0.4166666666666667 3.617739970241259e-17 0 0.2500000000000001 0.08333333333333337 0 0.2499999999999999 0.1666666666666666 0 0.5 0.08333333333333334 0 0.4999999999999999 0.1666666666666667 0 0.3333333333333333 0.2499999999999999 0 0.4166666666666663 0.2499999999999999 0 0.3333333333333335 0.08333333333333338 0 0.4166666666666667 0.08333333333333334 0 0.3333333333333335 0.1666666666666667 0 0.4166666666666665 0.1666666666666666 0 0.5000000000000011 8.847089727481715e-17 0 0.7499999999999998 3.353798720221827e-17 0 0.4999999999999996 0.25 0 0.7500000000000004 0.2500000000000001 0 0.5833333333333334 8.178379666401029e-17 0 0.6666666666666667 3.617739970241259e-17 0 0.5000000000000001 0.08333333333333337 0 0.4999999999999999 0.1666666666666666 0 0.7500000000000002 0.08333333333333334 0 0.7499999999999998 0.1666666666666667 0 0.5833333333333333 0.2499999999999999 0 0.6666666666666661 0.2499999999999999 0 0.5833333333333337 0.08333333333333338 0 0.6666666666666669 0.08333333333333334 0 0.5833333333333337 0.1666666666666667 0 0.6666666666666663 0.1666666666666666 0 0.7500000000000016 8.847089727481715e-17 0 0.9999999999999998 3.353798720221827e-17 0 0.7499999999999997 0.25 0 1.000000000000001 0.2500000000000001 0 0.8333333333333336 8.178379666401029e-17 0 0.916666666666667 3.617739970241259e-17 0 0.7500000000000003 0.08333333333333337 0 0.7499999999999998 0.1666666666666666 0 1 0.08333333333333334 0 0.9999999999999997 0.1666666666666667 0 0.8333333333333333 0.2499999999999999 0 0.9166666666666656 0.2499999999999999 0 0.8333333333333339 0.08333333333333338 0 0.916666666666667 0.08333333333333334 0 0.8333333333333339 0.1666666666666667 0 0.9166666666666662 0.1666666666666666 0 5.204170427930421e-17 0.2500000000000006 0 0.2500000000000001 0.2499999999999999 0 1.098658201451978e-17 0.4999999999999998 0 0.2500000000000001 0.5000000000000004 0 0.08333333333333336 0.2500000000000001 0 0.1666666666666667 0.2500000000000001 0 4.280255587116242e-17 0.3333333333333334 0 -4.800672629909284e-17 0.4166666666666665 0 0.25 0.3333333333333334 0 0.25 0.4166666666666665 0 0.0833333333333333 0.4999999999999999 0 0.1666666666666666 0.4999999999999996 0 0.0833333333333334 0.3333333333333335 0 0.1666666666666667 0.3333333333333334 0 0.08333333333333341 0.4166666666666669 0 0.1666666666666666 0.4166666666666664 0 0.7500000000000016 0.2500000000000006 0 0.9999999999999998 0.2499999999999999 0 0.7499999999999997 0.4999999999999998 0 1.000000000000001 0.5000000000000004 0 0.8333333333333336 0.2500000000000001 0 0.916666666666667 0.2500000000000001 0 0.7500000000000003 0.3333333333333334 0 0.7499999999999998 0.4166666666666665 0 1 0.3333333333333334 0 0.9999999999999997 0.4166666666666665 0 0.8333333333333333 0.4999999999999999 0 0.9166666666666656 0.4999999999999996 0 0.8333333333333339 0.3333333333333335 0 0.916666666666667 0.3333333333333334 0 0.8333333333333339 0.4166666666666669 0 0.9166666666666662 0.4166666666666664 0 5.204170427930421e-17 0.5000000000000011 0 0.2500000000000001 0.4999999999999997 0 1.098658201451978e-17 0.7499999999999996 0 0.2500000000000001 0.7500000000000007 0 0.08333333333333336 0.5000000000000001 0 0.1666666666666667 0.5000000000000001 0 4.280255587116242e-17 0.5833333333333335 0 -4.800672629909284e-17 0.6666666666666664 0 0.25 0.5833333333333336 0 0.25 0.6666666666666664 0 0.0833333333333333 0.7499999999999998 0 0.1666666666666666 0.7499999999999993 0 0.0833333333333334 0.5833333333333337 0 0.1666666666666667 0.5833333333333336 0 0.08333333333333341 0.666666666666667 0 0.1666666666666666 0.6666666666666663 0 0.7500000000000016 0.5000000000000011 0 0.9999999999999998 0.4999999999999997 0 0.7499999999999997 0.7499999999999996 0 1.000000000000001 0.7500000000000007 0 0.8333333333333336 0.5000000000000001 0 0.916666666666667 0.5000000000000001 0 0.7500000000000003 0.5833333333333335 0 0.7499999999999998 0.6666666666666664 0 1 0.5833333333333336 0 0.9999999999999997 0.6666666666666664 0 0.8333333333333333 0.7499999999999998 0 0.9166666666666656 0.7499999999999993 0 0.8333333333333339 0.5833333333333337 0 0.916666666666667 0.5833333333333336 0 0.8333333333333339 0.666666666666667 0 0.9166666666666662 0.6666666666666663 0 5.204170427930421e-17 0.7500000000000014 0 0.2500000000000001 0.7499999999999999 0 1.098658201451978e-17 0.9999999999999997 0 0.2500000000000001 1.000000000000001 0 0.08333333333333336 0.7500000000000001 0 0.1666666666666667 0.7500000000000002 0 4.280255587116242e-17 0.8333333333333335 0 -4.800672629909284e-17 0.9166666666666664 0 0.25 0.8333333333333336 0 0.25 0.9166666666666663 0 0.0833333333333333 0.9999999999999998 0 0.1666666666666666 0.9999999999999989 0 0.0833333333333334 0.8333333333333339 0 0.1666666666666667 0.8333333333333336 0 0.08333333333333341 0.9166666666666672 0 0.1666666666666666 0.9166666666666662 0 0.2500000000000006 0.7500000000000014 0 0.5 0.7499999999999999 0 0.2499999999999998 0.9999999999999997 0 0.5000000000000004 1.000000000000001 0 0.3333333333333334 0.7500000000000001 0 0.4166666666666667 0.7500000000000002 0 0.2500000000000001 0.8333333333333335 0 0.2499999999999999 0.9166666666666664 0 0.5 0.8333333333333336 0 0.4999999999999999 0.9166666666666663 0 0.3333333333333333 0.9999999999999998 0 0.4166666666666663 0.9999999999999989 0 0.3333333333333335 0.8333333333333339 0 0.4166666666666667 0.8333333333333336 0 0.3333333333333335 0.9166666666666672 0 0.4166666666666665 0.9166666666666662 0 0.5000000000000011 0.7500000000000014 0 0.7499999999999998 0.7499999999999999 0 0.4999999999999996 0.9999999999999997 0 0.7500000000000004 1.000000000000001 0 0.5833333333333334 0.7500000000000001 0 0.6666666666666667 0.7500000000000002 0 0.5000000000000001 0.8333333333333335 0 0.4999999999999999 0.9166666666666664 0 0.7500000000000002 0.8333333333333336 0 0.7499999999999998 0.9166666666666663 0 0.5833333333333333 0.9999999999999998 0 0.6666666666666661 0.9999999999999989 0 0.5833333333333337 0.8333333333333339 0 0.6666666666666669 0.8333333333333336 0 0.5833333333333337 0.9166666666666672 0 0.6666666666666663 0.9166666666666662 0 0.7500000000000016 0.7500000000000014 0 0.9999999999999998 0.7499999999999999 0 0.7499999999999997 0.9999999999999997 0 1.000000000000001 1.000000000000001 0 0.8333333333333336 0.7500000000000001 0 0.916666666666667 0.7500000000000002 0 0.7500000000000003 0.8333333333333335 0 0.7499999999999998 0.9166666666666664 0 1 0.8333333333333336 0 0.9999999999999997 0.9166666666666663 0 0.8333333333333333 0.9999999999999998 0 0.9166666666666656 0.9999999999999989 0 0.8333333333333339 0.8333333333333339 0 0.916666666666667 0.8333333333333336 0 0.8333333333333339 0.9166666666666672 0 0.9166666666666662 0.9166666666666662 0 </DataArray>
      </Points>
      <Cells>
        <DataArray type="Int32" Name="connectivity" format="ascii">0 1 3 2 4 5 8 9 10 11 6 7 12 13 14 15 16 17 19 18 20 21 24 25 26 27 22 23 28 29 30 31 32 33 35 34 36 37 40 41 42 43 38 39 44 45 46 47 48 49 51 50 52 53 56 57 58 59 54 55 60 61 62 63 64 65 67 66 68 69 72 73 74 75 70 71 76 77 78 79 80 81 83 82 84 85 88 89 90 91 86 87 92 93 94 95 96 97 99 98 100 101 104 105 106 107 102 103 108 109 110 111 112 113 115 114 116 117 120 121 122 123 118 119 124 125 126 127 128 129 131 130 132 133 136 137 138 139 134 135 140 141 142 143 144 145 147 146 148 149 152 153 154 155 150 151 156 157 158 159 160 161 163 162 164 165 168 169 170 171 166 167 172 173 174 175 176 177 179 178 180 181 184 185 186 187 182 183 188 189 190 191 192 193 195 194 196 197 200 201 202 203 198 199 204 205 206 207 208 209 211 210 212 213 216 217 218 219 214 215 220 221 222 223 224 225 227 226 228 229 232 233 234 235 230 231 236 237 238 239 240 241 243 242 244 245 248 249 250 251 246 247 252 253 254 255 256 257 259 258 260 261 264 265 266 267 262 263 268 269 270 271 272 273 275 274 276 277 280 281 282 283 278 279 284 285 286 287 288 289 291 290 292 293 296 297 298 299 294 295 300 301 302 303 304 305 307 306 308 309 312 313 314 315 310 311 316 317 318 319 </DataArray>
        <DataArray type="Int32" Name="offsets" format="ascii">16 32 48 64 80 96 112 128 144 160 176 192 208 224 240 256 272 288 304 320 </DataArray>
        <DataArray type="Int8" Name="types" format="ascii">70 70 70 70 70 70 70 70 70 70 70 70 70 70 70 70 70 70 70 70 </DataArray>
      </Cells>
      <CellData>
        <DataArray type="UInt8" Name="vtkGhostType" format="ascii" RangeMin="0" RangeMax="1">0 0 0 0 0 0 0 0 0 0 0 0 0 0 0 0 0 0 0 0 </DataArray>
        <DataArray type="Int64" IdType="1" Name="vtkOriginalCellIds" format="ascii" RangeMin="0" RangeMax="19">0 1 2 3 4 5 6 7 8 9 10 11 12 13 14 15 16 17 18 19 </DataArray>
      </CellData>
      <PointData Vectors="solution">
        <DataArray type="Int64" IdType="1" Name="vtkOriginalPointIds" format="ascii" RangeMin="0" RangeMax="319">0 1 2 3 4 5 6 7 8 9 10 11 12 13 14 15 16 17 18 19 20 21 22 23 24 25 26 27 28 29 30 31 32 33 34 35 36 37 38 39 40 41 42 43 44 45 46 47 48 49 50 51 52 53 54 55 56 57 58 59 60 61 62 63 64 65 66 67 68 69 70 71 72 73 74 75 76 77 78 79 80 81 82 83 84 85 86 87 88 89 90 91 92 93 94 95 96 97 98 99 100 101 102 103 104 105 106 107 108 109 110 111 112 113 114 115 116 117 118 119 120 121 122 123 124 125 126 127 128 129 130 131 132 133 134 135 136 137 138 139 140 141 142 143 144 145 146 147 148 149 150 151 152 153 154 155 156 157 158 159 160 161 162 163 164 165 166 167 168 169 170 171 172 173 174 175 176 177 178 179 180 181 182 183 184 185 186 187 188 189 190 191 192 193 194 195 196 197 198 199 200 201 202 203 204 205 206 207 208 209 210 211 212 213 214 215 216 217 218 219 220 221 222 223 224 225 226 227 228 229 230 231 232 233 234 235 236 237 238 239 240 241 242 243 244 245 246 247 248 249 250 251 252 253 254 255 256 257 258 259 260 261 262 263 264 265 266 267 268 269 270 271 272 273 274 275 276 277 278 279 280 281 282 283 284 285 286 287 288 289 290 291 292 293 294 295 296 297 298 299 300 301 302 303 304 305 306 307 308 309 310 311 312 313 314 315 316 317 318 319 </DataArray>
        <DataArray type="UInt8" Name="vtkGhostType" format="ascii" RangeMin="0" RangeMax="0">0 0 0 0 0 0 0 0 0 0 0 0 0 0 0 0 0 0 0 0 0 0 0 0 0 0 0 0 0 0 0 0 0 0 0 0 0 0 0 0 0 0 0 0 0 0 0 0 0 0 0 0 0 0 0 0 0 0 0 0 0 0 0 0 0 0 0 0 0 0 0 0 0 0 0 0 0 0 0 0 0 0 0 0 0 0 0 0 0 0 0 0 0 0 0 0 0 0 0 0 0 0 0 0 0 0 0 0 0 0 0 0 0 0 0 0 0 0 0 0 0 0 0 0 0 0 0 0 0 0 0 0 0 0 0 0 0 0 0 0 0 0 0 0 0 0 0 0 0 0 0 0 0 0 0 0 0 0 0 0 0 0 0 0 0 0 0 0 0 0 0 0 0 0 0 0 0 0 0 0 0 0 0 0 0 0 0 0 0 0 0 0 0 0 0 0 0 0 0 0 0 0 0 0 0 0 0 0 0 0 0 0 0 0 0 0 0 0 0 0 0 0 0 0 0 0 0 0 0 0 0 0 0 0 0 0 0 0 0 0 0 0 0 0 0 0 0 0 0 0 0 0 0 0 0 0 0 0 0 0 0 0 0 0 0 0 0 0 0 0 0 0 0 0 0 0 0 0 0 0 0 0 0 0 0 0 0 0 0 0 0 0 0 0 0 0 0 0 0 0 0 0 0 0 0 0 0 0 0 0 0 0 0 0 0 0 0 0 0 0 </DataArray>
        <DataArray type="Float64" Name="solution" format="ascii" NumberOfComponents="3">0.5587179428882615 0 0 0.5949276612201196 0 0 0.7371000973604886 0 0 1.429164101625002 0 0 0.5707878489988794 0 0 0.5828577551094998 0 0 0.6181786610456692 0 0 0.677639379203079 0 0 0.873006474688413 0 0 1.151085288156702 0 0 0.9677880987819911 0 0 1.198476100203489 0 0 0.7031212655932508 0 0 0.7880638701408311 0 0 0.8354546821876222 0 0 0.9932699851721604 0 0 0.5949276612201218 0 0 0.7397665345475632 0 0 1.429164101624994 0 0 1.431297251374662 0 0 0.6432072856626012 0 0 0.6914869101050826 0 0 0.8730064746884123 0 0 1.151085288156703 0 0 0.9702767734899304 0 0 1.20078701243229 0 0 1.3330390195885 0 0 1.326310837691935 0 0 0.8731511969712356 0 0 0.9030948859673691 0 0 1.10309510827987 0 0 1.114702861829652 0 0 0.7397665345475659 0 0 0.5948735633351172 0 0 1.431297251374654 0 0 1.430236750570644 0 0 0.6914688774767482 0 0 0.6431712204059328 0 0 0.9702767734899296 0 0 1.200787012432291 0 0 0.8733279590802938 0 0 1.151782354825473 0 0 1.326385106168323 0 0 1.333306213253394 0 0 0.9031076203739408 0 0 0.8732162180217533 0 0 1.114746363271132 0 0 1.103261215637573 0 0 0.5948735633351178 0 0 0.558650320532006 0 0 1.430236759372636 0 0 0.738440919545021 0 0 0.5827991490674138 0 0 0.5707247347997098 0 0 0.8733279620142882 0 0 1.151782360693459 0 0 0.6185805202030137 0 0 0.6785107198740274 0 0 1.199638146096765 0 0 0.9690395328209063 0 0 0.7884121480771943 0 0 0.703496334140105 0 0 0.994025147086976 0 0 0.8362679334805045 0 0 0.7371000973604918 0 0 1.429164101624995 0 0 0.5587847101288707 0 0 0.594713362430654 0 0 0.9677880987819919 0 0 1.198476100203496 0 0 0.6776616349499497 0 0 0.6182231725394102 0 0 1.151013855226883 0 0 0.8728636088287691 0 0 0.5707609275627991 0 0 0.5827371449967288 0 0 0.8354457083755936 0 0 0.9932297818012382 0 0 0.7031033179691968 0 0 0.7879834633989834 0 0 1.429164101625008 0 0 1.43022640104685 0 0 0.5947133624306571 0 0 0.7384279716377924 0 0 1.332687775945846 0 0 1.32558388802143 0 0 1.151013855226883 0 0 0.8728636088287696 0 0 1.19962692457716 0 0 0.9690274481074874 0 0 0.642618232166371 0 0 0.6905231019020925 0 0 1.102664594686019 0 0 1.113896959314981 0 0 0.8726414134261929 0 0 0.9022100306085373 0 0 1.430236759372617 0 0 0.7384409195450378 0 0 1.430226396644802 0 0 0.5946618598625825 0 0 1.199638146096764 0 0 0.9690395328208978 0 0 1.325664471087747 0 0 1.332955786980402 0 0 0.6905145663175463 0 0 0.6425882130900709 0 0 1.151704884384059 0 0 0.8731833721233266 0 0 1.113947836164343 0 0 0.9022312012409446 0 0 1.102833262350284 0 0 0.8727107377201804 0 0 1.43022640104683 0 0 0.5946618598625861 0 0 0.7384279716378062 0 0 0.5587170949419722 0 0 1.151704887318757 0 0 0.8731833735906698 0 0 1.199626924577164 0 0 0.9690274481074844 0 0 0.5826802715557132 0 0 0.5706986832488442 0 0 0.6785243460725254 0 0 0.6186207205072529 0 0 0.9939780402366749 0 0 0.7883291558961951 0 0 0.8362511931545975 0 0 0.7034749382017249 0 0 2.326130716746555e-17 0 0 1.161201529494009e-16 0 0 8.51050767261135e-17 0 0 0.5587179428882594 0 0 6.972179387308772e-17 0 0 6.965966624377875e-17 0 0 5.421425576144401e-17 0 0 -4.923145927882299e-17 0 0 0.1862393142960864 0 0 0.3724786285921727 0 0 0.1862393142960862 0 0 0.3724786285921722 0 0 0.06207977143202888 0 0 0.1241595428640576 0 0 0.1241595428640577 0 0 0.2483190857281149 0 0 3.125489690302212e-16 0 0 7.669377190241194e-17 0 0 0.5587179428882585 0 0 0.7397665345475642 0 0 2.224185264463669e-16 0 0 1.233635290793138e-16 0 0 0.1862393142960865 0 0 0.3724786285921723 0 0 0.2465888448491879 0 0 0.4931776896983758 0 0 0.6190674734413601 0 0 0.6794170039944615 0 0 0.2063558244804537 0 0 0.2264723346648208 0 0 0.4127116489609072 0 0 0.452944669329641 0 0 3.608007438107962e-16 0 0 6.477821504471178e-17 0 0 0.7397665345475634 0 0 0.5586503205320059 0 0 2.467686302893462e-16 0 0 1.132390310514814e-16 0 0 0.246588844849188 0 0 0.4931776896983753 0 0 0.1862167735106686 0 0 0.3724335470213375 0 0 0.6793944632090442 0 0 0.6190223918705253 0 0 0.2264648210696816 0 0 0.2063407972901751 0 0 0.4529296421393629 0 0 0.41268159458035 0 0 2.54197472797585e-16 0 0 -3.876415303555351e-17 0 0 0.5586503205320061 0 0 -1.890376199189681e-15 0 0 1.316763675921605e-16 0 0 3.611899980215579e-17 0 0 0.1862167735106687 0 0 0.3724335470213372 0 0 -2.709109149337644e-16 0 0 5.978442693777457e-16 0 0 0.3724335470213373 0 0 0.186216773510671 0 0 0.1241445156737787 0 0 0.06207225783688926 0 0 0.2482890313475574 0 0 0.1241445156737799 0 0 2.091653816192631e-16 0 0 0.5587179428882589 0 0 1.312091887858355e-16 0 0 0.73710009736049 0 0 0.1862393142960864 0 0 0.3724786285921726 0 0 1.22525136944027e-16 0 0 -9.149091204917801e-17 0 0 0.6181786610456692 0 0 0.677639379203079 0 0 0.2457000324534963 0 0 0.4914000649069924 0 0 0.2060595536818899 0 0 0.4121191073637794 0 0 0.2258797930676933 0 0 0.4517595861353859 0 0 0.558650320532006 0 0 1.086710753940831e-15 0 0 0.7384409195450367 0 0 -2.529520702584418e-15 0 0 0.3724335470213367 0 0 0.1862167735106681 0 0 0.6185805202030125 0 0 0.6785107198740253 0 0 -8.645787040276076e-16 0 0 1.090627711168857e-15 0 0 0.4922939463633544 0 0 0.2461469731816806 0 0 0.4123870134686748 0 0 0.2061935067343372 0 0 0.4523404799160141 0 0 0.2261702399580091 0 0 2.401038420646279e-16 0 0 0.7371000973604895 0 0 8.709213785202369e-17 0 0 0.5587847101288704 0 0 0.2457000324534966 0 0 0.4914000649069928 0 0 1.317364969439331e-16 0 0 -8.585360682627433e-17 0 0 0.6776616349499497 0 0 0.6182231725394103 0 0 0.1862615700429568 0 0 0.3725231400859138 0 0 0.2258872116499834 0 0 0.4517744232999664 0 0 0.2060743908464701 0 0 0.4121487816929401 0 0 0.7384409195450107 0 0 7.44825550666763e-16 0 0 0.5587170949419736 0 0 -1.941852134818539e-15 0 0 0.4922939463633535 0 0 0.2461469731816768 0 0 0.678532978010675 0 0 0.6186250364763275 0 0 -3.201581967945615e-16 0 0 7.158511572150292e-16 0 0 0.3724780632946492 0 0 0.1862390316473269 0 0 0.4523553186737841 0 0 0.2261776593368918 0 0 0.4124166909842155 0 0 0.2062083454921098 0 0 1.237218192490657e-16 0 0 0.558784710128871 0 0 -1.809428982064565e-17 0 0 -1.875342390643603e-15 0 0 0.1862615700429568 0 0 0.3725231400859135 0 0 1.006843171435759e-16 0 0 -2.8497247075311e-17 0 0 0.372523140085913 0 0 0.186261570042958 0 0 2.38241984084845e-16 0 0 1.913687559638117e-15 0 0 0.1241743800286376 0 0 0.2483487600572754 0 0 0.06208719001431865 0 0 0.1241743800286386 0 0 0.5587847101288707 0 0 0.7384279716378015 0 0 1.086951342850674e-15 0 0 -2.508988713813649e-15 0 0 0.6186657972985128 0 0 0.6785468844681553 0 0 0.3725231400859135 0 0 0.1862615700429575 0 0 0.4922853144251991 0 0 0.2461426572126012 0 0 8.208583865308327e-16 0 0 3.483359581408912e-15 0 0 0.4124438648656742 0 0 0.4523645896454372 0 0 0.2062219324328367 0 0 0.2261822948227201 0 0 0.7384279716377807 0 0 0.5587170949419731 0 0 1.113727516475154e-15 0 0 -1.926343721800587e-15 0 0 0.6785243460725231 0 0 0.6186207205072473 0 0 0.4922853144251995 0 0 0.2461426572126008 0 0 0.3724780632946479 0 0 0.1862390316473253 0 0 9.183857263228932e-16 0 0 3.160102736602485e-15 0 0 0.4523495640483474 0 0 0.4124138136714983 0 0 0.2261747820241736 0 0 0.2062069068357508 0 0 0.5587170949419705 0 0 5.59846050186599e-16 0 0 1.073257229881966e-15 0 0 -7.753757288203934e-18 0 0 0.3724780632946479 0 0 0.1862390316473237 0 0 0.3724780632946478 0 0 0.1862390316473253 0 0 -5.470626647308187e-16 0 0 2.950775354361607e-16 0 0 5.126174979902887e-16 0 0 9.489777334079664e-16 0 0 0.2483187088630976 0 0 0.124159354431549 0 0 0.1241593544315483 0 0 0.06207967721577544 0 0 </DataArray>
      </PointData>
    </Piece>
  </UnstructuredGrid>
</VTKFile>
