<?xml version="1.0"?>
<VTKFile type="UnstructuredGrid" version="2.2">
  <UnstructuredGrid>
    <Piece NumberOfPoints="224" NumberOfCells="72">
      <Points>
        <DataArray type="Float64" NumberOfComponents="3" format="ascii">0.25 0.25 0 0.2999999999999999 0.25 0 0.2666666666666666 0.2499999999999999 0 0.2833333333333333 0.2500000000000001 0 0.25 0.4999999999999999 0 0.2499999999999999 0.3333333333333333 0 0.2500000000000001 0.4166666666666667 0 0.2999999999999999 0.5 0 0.2666666666666666 0.4999999999999999 0 0.2833333333333333 0.5000000000000001 0 0.2999999999999998 0.25 0 0.4999999999999999 0.25 0 0.3666666666666665 0.2499999999999999 0 0.4333333333333333 0.2500000000000001 0 0.5 0.3 0 0.4999999999999999 0.2666666666666666 0 0.5000000000000001 0.2833333333333333 0 0.2999999999999998 0.4999999999999999 0 0.3666666666666665 0.350928801500014 0 0.4333333333333333 0.3114381916835873 0 0.4999999999999999 0.25 0 0.7000000000000002 0.25 0 0.5666666666666665 0.2499999999999999 0 0.6333333333333335 0.2500000000000001 0 0.4999999999999999 0.2999999999999999 0 0.4999999999999999 0.2666666666666666 0 0.5000000000000001 0.2833333333333333 0 0.7000000000000002 0.4999999973658222 0 0.5666666666666665 0.3114381916835872 0 0.6333333333333335 0.350928801500014 0 0.7 0.25 0 0.7499999999999999 0.25 0 0.7166666666666667 0.2499999999999999 0 0.7333333333333335 0.2500000000000001 0 0.7500000000000001 0.5 0 0.7499999999999999 0.3333333333333333 0 0.7500000000000001 0.4166666666666667 0 0.7 0.4999999999999999 0 0.7166666666666667 0.4999999999999999 0 0.7333333333333335 0.5000000000000001 0 0.25 0.4999999999999999 0 0.2999999999999999 0.5 0 0.2666666666666666 0.4999999999999999 0 0.2833333333333333 0.5000000000000001 0 0.25 0.7499999999999999 0 0.2499999999999999 0.5833333333333333 0 0.2500000000000001 0.6666666666666667 0 0.2999999999999999 0.7500000000000001 0 0.2666666666666666 0.7499999999999999 0 0.2833333333333333 0.7500000000000001 0 0.2999999999999998 0.4999999999999999 0 0.4999999999999999 0.7 0 0.3666666666666665 0.6490711984999858 0 0.4333333333333333 0.6885618083164129 0 0.5 0.7500000000000001 0 0.4999999999999999 0.7166666666666667 0 0.5000000000000001 0.7333333333333335 0 0.2999999999999998 0.7499999999999999 0 0.3666666666666665 0.7499999999999999 0 0.4333333333333333 0.7500000000000001 0 0.7 0.4999999999999999 0 0.5000000013170891 0.7000000000000002 0 0.6885618083164127 0.5666666666666665 0 0.6490711984999862 0.6333333333333335 0 0.7499999999999999 0.4999999999999999 0 0.7166666666666667 0.4999999999999999 0 0.7333333333333335 0.5000000000000001 0 0.7500000000000001 0.7000000000000002 0 0.7499999999999999 0.5666666666666665 0 0.7500000000000001 0.6333333333333335 0 0.4999999999999999 0.7 0 0.4999999999999999 0.7499999999999999 0 0.4999999999999999 0.7166666666666667 0 0.5000000000000001 0.7333333333333335 0 0.7500000000000001 0.7500000000000001 0 0.5833333333333333 0.7499999999999999 0 0.6666666666666667 0.7500000000000001 0 0.7499999999999999 0.7 0 0.7499999999999999 0.7166666666666667 0 0.7500000000000001 0.7333333333333335 0 -9.251858538542971e-18 0 0 -9.251858538542971e-18 0.25 0 0 0.0833333333333333 0 0 0.1666666666666667 0 0.25 -9.251858538542971e-18 0 0.0833333333333333 0 0 0.1666666666666667 0 0 0.25 0.25 0 0.0833333333333333 0.2499999999999999 0 0.1666666666666667 0.2500000000000001 0 0.2499999999999999 0.0833333333333333 0 0.2500000000000001 0.1666666666666667 0 0.25 0 0 0.25 0.25 0 0.2499999999999999 0.0833333333333333 0 0.2500000000000001 0.1666666666666667 0 0.4999999999999999 -9.251858538542971e-18 0 0.3333333333333333 0 0 0.4166666666666667 0 0 0.5 0.25 0 0.3333333333333333 0.2499999999999999 0 0.4166666666666667 0.2500000000000001 0 0.4999999999999999 0.0833333333333333 0 0.5000000000000001 0.1666666666666667 0 0.4999999999999999 0 0 0.4999999999999999 0.25 0 0.4999999999999999 0.0833333333333333 0 0.5000000000000001 0.1666666666666667 0 0.7499999999999999 -9.251858538542971e-18 0 0.5833333333333333 0 0 0.6666666666666667 0 0 0.7500000000000001 0.25 0 0.5833333333333333 0.2499999999999999 0 0.6666666666666667 0.2500000000000001 0 0.7499999999999999 0.0833333333333333 0 0.7500000000000001 0.1666666666666667 0 0.7499999999999999 0 0 0.7499999999999999 0.25 0 0.7499999999999999 0.0833333333333333 0 0.7500000000000001 0.1666666666666667 0 0.9999999999999999 -9.251858538542971e-18 0 0.8333333333333333 0 0 0.9166666666666667 0 0 1 0.25 0 0.8333333333333333 0.2499999999999999 0 0.9166666666666667 0.2500000000000001 0 0.9999999999999998 0.0833333333333333 0 1 0.1666666666666667 0 -9.251858538542971e-18 0.25 0 -9.251858538542971e-18 0.4999999999999999 0 0 0.3333333333333333 0 0 0.4166666666666667 0 0.25 0.25 0 0.0833333333333333 0.2499999999999999 0 0.1666666666666667 0.2500000000000001 0 0.25 0.5 0 0.0833333333333333 0.4999999999999999 0 0.1666666666666667 0.5000000000000001 0 0.2499999999999999 0.3333333333333333 0 0.2500000000000001 0.4166666666666667 0 0.7499999999999999 0.25 0 0.7499999999999999 0.4999999999999999 0 0.7499999999999999 0.3333333333333333 0 0.7500000000000001 0.4166666666666667 0 0.9999999999999999 0.25 0 0.8333333333333333 0.2499999999999999 0 0.9166666666666667 0.2500000000000001 0 1 0.5 0 0.8333333333333333 0.4999999999999999 0 0.9166666666666667 0.5000000000000001 0 0.9999999999999998 0.3333333333333333 0 1 0.4166666666666667 0 -9.251858538542971e-18 0.4999999999999999 0 -9.251858538542971e-18 0.7499999999999999 0 0 0.5833333333333333 0 0 0.6666666666666667 0 0.25 0.4999999999999999 0 0.0833333333333333 0.4999999999999999 0 0.1666666666666667 0.5000000000000001 0 0.25 0.7500000000000001 0 0.0833333333333333 0.7499999999999999 0 0.1666666666666667 0.7500000000000001 0 0.2499999999999999 0.5833333333333333 0 0.2500000000000001 0.6666666666666667 0 0.7499999999999999 0.4999999999999999 0 0.7499999999999999 0.7499999999999999 0 0.7499999999999999 0.5833333333333333 0 0.7500000000000001 0.6666666666666667 0 0.9999999999999999 0.4999999999999999 0 0.8333333333333333 0.4999999999999999 0 0.9166666666666667 0.5000000000000001 0 1 0.7500000000000001 0 0.8333333333333333 0.7499999999999999 0 0.9166666666666667 0.7500000000000001 0 0.9999999999999998 0.5833333333333333 0 1 0.6666666666666667 0 -9.251858538542971e-18 0.7499999999999999 0 -9.251858538542971e-18 0.9999999999999999 0 0 0.8333333333333333 0 0 0.9166666666666667 0 0.25 0.7499999999999999 0 0.0833333333333333 0.7499999999999999 0 0.1666666666666667 0.7500000000000001 0 0.25 1 0 0.0833333333333333 0.9999999999999998 0 0.1666666666666667 1 0 0.2499999999999999 0.8333333333333333 0 0.2500000000000001 0.9166666666666667 0 0.25 0.7499999999999999 0 0.25 0.9999999999999999 0 0.2499999999999999 0.8333333333333333 0 0.2500000000000001 0.9166666666666667 0 0.4999999999999999 0.7499999999999999 0 0.3333333333333333 0.7499999999999999 0 0.4166666666666667 0.7500000000000001 0 0.5 1 0 0.3333333333333333 0.9999999999999998 0 0.4166666666666667 1 0 0.4999999999999999 0.8333333333333333 0 0.5000000000000001 0.9166666666666667 0 0.4999999999999999 0.7499999999999999 0 0.4999999999999999 0.9999999999999999 0 0.4999999999999999 0.8333333333333333 0 0.5000000000000001 0.9166666666666667 0 0.7499999999999999 0.7499999999999999 0 0.5833333333333333 0.7499999999999999 0 0.6666666666666667 0.7500000000000001 0 0.7500000000000001 1 0 0.5833333333333333 0.9999999999999998 0 0.6666666666666667 1 0 0.7499999999999999 0.8333333333333333 0 0.7500000000000001 0.9166666666666667 0 0.7499999999999999 0.7499999999999999 0 0.7499999999999999 0.9999999999999999 0 0.7499999999999999 0.8333333333333333 0 0.7500000000000001 0.9166666666666667 0 0.9999999999999999 0.7499999999999999 0 0.8333333333333333 0.7499999999999999 0 0.9166666666666667 0.7500000000000001 0 1 1 0 0.8333333333333333 0.9999999999999998 0 0.9166666666666667 1 0 0.9999999999999998 0.8333333333333333 0 1 0.9166666666666667 0 </DataArray>
      </Points>
      <Cells>
        <DataArray type="Int32" Name="connectivity" format="ascii">0 1 2 3 0 4 5 6 4 7 8 9 10 11 12 13 11 14 15 16 17 14 18 19 20 21 22 23 20 24 25 26 24 27 28 29 30 31 32 33 31 34 35 36 37 34 38 39 40 41 42 43 40 44 45 46 44 47 48 49 50 51 52 53 51 54 55 56 57 54 58 59 60 61 62 63 60 64 65 66 64 67 68 69 70 71 72 73 71 74 75 76 77 74 78 79 80 81 82 83 80 84 85 86 81 87 88 89 84 87 90 91 92 93 94 95 92 96 97 98 93 99 100 101 96 99 102 103 104 105 106 107 104 108 109 110 105 111 112 113 108 111 114 115 116 117 118 119 116 120 121 122 117 123 124 125 120 123 126 127 128 129 130 131 128 132 133 134 129 135 136 137 132 135 138 139 140 141 142 143 140 144 145 146 141 147 148 149 144 147 150 151 152 153 154 155 152 156 157 158 153 159 160 161 156 159 162 163 164 165 166 167 164 168 169 170 165 171 172 173 168 171 174 175 176 177 178 179 176 180 181 182 177 183 184 185 180 183 186 187 188 189 190 191 188 192 193 194 189 195 196 197 192 195 198 199 200 201 202 203 200 204 205 206 201 207 208 209 204 207 210 211 212 213 214 215 212 216 217 218 213 219 220 221 216 219 222 223 </DataArray>
        <DataArray type="Int32" Name="offsets" format="ascii">4 8 12 16 20 24 28 32 36 40 44 48 52 56 60 64 68 72 76 80 84 88 92 96 100 104 108 112 116 120 124 128 132 136 140 144 148 152 156 160 164 168 172 176 180 184 188 192 196 200 204 208 212 216 220 224 228 232 236 240 244 248 252 256 260 264 268 272 276 280 284 288 </DataArray>
        <DataArray type="Int8" Name="types" format="ascii">68 68 68 68 68 68 68 68 68 68 68 68 68 68 68 68 68 68 68 68 68 68 68 68 68 68 68 68 68 68 68 68 68 68 68 68 68 68 68 68 68 68 68 68 68 68 68 68 68 68 68 68 68 68 68 68 68 68 68 68 68 68 68 68 68 68 68 68 68 68 68 68 </DataArray>
      </Cells>
      <CellData>
        <DataArray type="UInt8" Name="vtkGhostType" format="ascii" RangeMin="0" RangeMax="1">0 0 0 0 0 0 0 0 0 0 0 0 0 0 0 0 0 0 0 0 0 0 0 0 0 0 0 0 0 0 0 0 0 0 0 0 0 0 0 0 0 0 0 0 0 0 0 0 0 0 0 0 0 0 0 0 0 0 0 0 0 0 0 0 0 0 0 0 0 0 0 0 </DataArray>
        <DataArray type="Int64" IdType="1" Name="vtkOriginalCellIds" format="ascii" RangeMin="0" RangeMax="71">0 1 2 3 4 5 6 7 8 9 10 11 12 13 14 15 16 17 18 19 20 21 22 23 24 25 26 27 28 29 30 31 32 33 34 35 36 37 38 39 40 41 42 43 44 45 46 47 48 49 50 51 52 53 54 55 56 57 58 59 60 61 62 63 64 65 66 67 68 69 70 71 </DataArray>
      </CellData>
      <PointData Vectors="solution_wirebasket">
        <DataArray type="Int64" IdType="1" Name="vtkOriginalPointIds" format="ascii" RangeMin="0" RangeMax="223">0 1 2 3 4 5 6 7 8 9 10 11 12 13 14 15 16 17 18 19 20 21 22 23 24 25 26 27 28 29 30 31 32 33 34 35 36 37 38 39 40 41 42 43 44 45 46 47 48 49 50 51 52 53 54 55 56 57 58 59 60 61 62 63 64 65 66 67 68 69 70 71 72 73 74 75 76 77 78 79 80 81 82 83 84 85 86 87 88 89 90 91 92 93 94 95 96 97 98 99 100 101 102 103 104 105 106 107 108 109 110 111 112 113 114 115 116 117 118 119 120 121 122 123 124 125 126 127 128 129 130 131 132 133 134 135 136 137 138 139 140 141 142 143 144 145 146 147 148 149 150 151 152 153 154 155 156 157 158 159 160 161 162 163 164 165 166 167 168 169 170 171 172 173 174 175 176 177 178 179 180 181 182 183 184 185 186 187 188 189 190 191 192 193 194 195 196 197 198 199 200 201 202 203 204 205 206 207 208 209 210 211 212 213 214 215 216 217 218 219 220 221 222 223 </DataArray>
        <DataArray type="UInt8" Name="vtkGhostType" format="ascii" RangeMin="0" RangeMax="0">0 0 0 0 0 0 0 0 0 0 0 0 0 0 0 0 0 0 0 0 0 0 0 0 0 0 0 0 0 0 0 0 0 0 0 0 0 0 0 0 0 0 0 0 0 0 0 0 0 0 0 0 0 0 0 0 0 0 0 0 0 0 0 0 0 0 0 0 0 0 0 0 0 0 0 0 0 0 0 0 0 0 0 0 0 0 0 0 0 0 0 0 0 0 0 0 0 0 0 0 0 0 0 0 0 0 0 0 0 0 0 0 0 0 0 0 0 0 0 0 0 0 0 0 0 0 0 0 0 0 0 0 0 0 0 0 0 0 0 0 0 0 0 0 0 0 0 0 0 0 0 0 0 0 0 0 0 0 0 0 0 0 0 0 0 0 0 0 0 0 0 0 0 0 0 0 0 0 0 0 0 0 0 0 0 0 0 0 0 0 0 0 0 0 0 0 0 0 0 0 0 0 0 0 0 0 0 0 0 0 0 0 0 0 0 0 0 0 0 0 0 0 0 0 </DataArray>
        <DataArray type="Float64" Name="solution_wirebasket" format="ascii" NumberOfComponents="3">0.5652006434176461 0.5653062326799229 0 0.596244181978048 0.5973378680991985 0 0.5755484896044466 0.575983444486348 0 0.5858963357912474 0.5866606562927734 0 0.7249563686772375 0.720689166176957 0 0.6184525518375098 0.6171005438456009 0 0.671704460257374 0.6688948550112792 0 0.8654234093044171 0.8616652003279666 0 0.7717787155529638 0.7676811775606267 0 0.8186010624286906 0.8146731889442966 0 0.5962441819780477 0.5973378680991983 0 0.7204183362196549 0.7254644097763009 0 0.63763556672525 0.6400467153248991 0 0.6790269514724528 0.6827555625506003 0 0.8617929833383511 0.8654853952074417 0 0.7675432185925535 0.772138071586681 0 0.8146681009654525 0.8188117333970616 0 0.8654234093044166 0.861665200327966 0 0.805208556173767 0.8054030258757937 0 0.816888167011782 0.8191104355254194 0 0.7204183362196549 0.7254644097763009 0 0.5758487965741879 0.5769541581637088 0 0.6722284896711659 0.6759609925721035 0 0.6240386431226769 0.6264575753679061 0 0.8617929833383506 0.8654853952074413 0 0.7675432185925535 0.772138071586681 0 0.8146681009654525 0.8188117333970616 0 0.8655055976269121 0.8616648989493034 0 0.8117671789269296 0.8139856254754407 0 0.7971230386561722 0.79729994804921 0 0.5758487965741879 0.5769541581637088 0 0.5397064116628213 0.539826595260561 0 0.5638013349370655 0.5645783038626594 0 0.5517538732999434 0.5522024495616102 0 0.7250591078953944 0.7206887932035223 0 0.6014906437403458 0.6001139945748816 0 0.6632748758178701 0.6604013938892019 0 0.8655056006789432 0.8616649019492192 0 0.8186901030844269 0.8146728657006537 0 0.7718746054899108 0.7676808294520882 0 0.7249563686772375 0.720689166176957 0 0.8654234093044171 0.8616652003279666 0 0.7717787155529638 0.7676811775606267 0 0.8186010624286907 0.8146731889442969 0 0.539755921850071 0.5398758147119967 0 0.6632228864015152 0.6604180490219701 0 0.601489404125793 0.6001469318669833 0 0.5758883640148615 0.5769730658176714 0 0.5518000692383344 0.5522415650805548 0 0.5638442166265979 0.564607315449113 0 0.8654234093044166 0.861665200327966 0 0.8617928205018476 0.8654035235786985 0 0.7971166059027933 0.7972872034172342 0 0.8117702915360987 0.8139389440585855 0 0.720418132674025 0.7253620702403716 0 0.8146679245592401 0.8187230391325897 0 0.7675430286166327 0.7720425546864808 0 0.5758883640148617 0.5769730658176715 0 0.6240649535679162 0.626436067291905 0 0.6722415431209707 0.6758990687661385 0 0.8655056006789432 0.8616649019492192 0 0.8617928191074403 0.8654035221616951 0 0.8191437118055375 0.8167892484114729 0 0.8055007598230555 0.8051024804924716 0 0.7250591078953946 0.7206887932035225 0 0.8186901030844269 0.8146728657006537 0 0.7718746054899108 0.7676808294520882 0 0.5971169504842492 0.5964385960575814 0 0.6824117220916798 0.6792720608215425 0 0.6397643362879641 0.6378553284395616 0 0.8617928205018476 0.8654035235786985 0 0.7204181326740253 0.7253620702403719 0 0.8146679245592401 0.8187230391325897 0 0.7675430286166327 0.7720425546864808 0 0.5651314111314628 0.5653760467710961 0 0.6686558921598381 0.6720333957506136 0 0.6168936516456505 0.6187047212608549 0 0.5971169504842496 0.5964385960575818 0 0.5864551040333209 0.5860844129620868 0 0.5757932575823919 0.5757302298665914 0 7.843734598190311e-18 7.845199943566971e-18 0 2.068333141996107e-18 2.062960208948349e-18 0 2.073454390937391e-17 2.073649770320946e-17 0 2.578161862236721e-17 2.578259551928499e-17 0 1.77558023383767e-17 1.775336009608226e-17 0 1.289080931118361e-17 1.28912977596425e-17 0 2.578161862236721e-17 2.578259551928499e-17 0 0.5652006434176462 0.565306232679923 0 0.1884002144725487 0.1884354108933076 0 0.3768004289450975 0.3768708217866154 0 0.1884002144725487 0.1884354108933076 0 0.3768004289450976 0.3768708217866155 0 1.066514611178667e-16 1.066656261231745e-16 0 0.5652006434176461 0.5653062326799229 0 0.1884002144725487 0.1884354108933076 0 0.3768004289450976 0.3768708217866155 0 1.581354817355475e-17 1.59219584465566e-17 0 3.293116942721819e-17 3.28626064345131e-17 0 4.293193226973345e-17 4.304620392424195e-17 0 0.7204183362196549 0.7254644097763009 0 0.616939874351649 0.6186922917120488 0 0.6686791052856522 0.6720783507441751 0 0.2401394454065516 0.2418214699254336 0 0.4802788908131033 0.4836429398508673 0 1.086114155202898e-16 1.091915658650922e-16 0 0.7204183362196549 0.7254644097763009 0 0.2401394454065516 0.2418214699254336 0 0.4802788908131033 0.4836429398508673 0 -1.334236078186904e-17 -1.373640822688665e-17 0 4.184968367186698e-17 4.191804412748133e-17 0 2.341551366680026e-17 2.329991169164227e-17 0 0.539706411662821 0.5398265952605606 0 0.6601810280340435 0.663585138271054 0 0.5999437198484323 0.6017058667658074 0 0.1799021372209403 0.1799421984201869 0 0.3598042744418807 0.3598843968403739 0 2.163312694310833e-17 2.138247193918906e-17 0 0.5397064116628213 0.539826595260561 0 0.1799021372209403 0.1799421984201869 0 0.3598042744418807 0.3598843968403739 0 -2.746308055176981e-17 -2.746919612081698e-17 0 1.056588747747557e-17 1.056366363418568e-17 0 -2.206987320835796e-18 -2.209767124948149e-18 0 7.910567456397573e-17 7.910400668150832e-17 0 0.3598042744418808 0.3598843968403739 0 0.1799021372209403 0.1799421984201869 0 2.385832715425769e-16 2.386299722516644e-16 0 -1.794507464707974e-16 -1.795035627489321e-16 0 2.068333141996107e-18 2.062960208948349e-18 0 1.591851125940692e-17 1.581150875088607e-17 0 3.065113551947078e-17 3.077250487188784e-17 0 4.081983929934951e-17 4.077938284854383e-17 0 0.5652006434176461 0.5653062326799229 0 0.1884002144725487 0.1884354108933076 0 0.3768004289450975 0.3768708217866154 0 0.7249563686772375 0.720689166176957 0 0.2416521228924124 0.2402297220589856 0 0.483304245784825 0.4804594441179714 0 0.6184525518375098 0.6171005438456009 0 0.671704460257374 0.6688948550112792 0 0.5397064116628213 0.539826595260561 0 0.7250591078953946 0.7206887932035225 0 0.6014906437403458 0.6001139945748816 0 0.6632748758178701 0.6604013938892019 0 8.909224931007384e-17 8.909280527089631e-17 0 0.3598042744418808 0.3598843968403739 0 0.1799021372209403 0.1799421984201869 0 7.495280816937185e-17 7.500511905698197e-17 0 0.48337273859693 0.4804591954690153 0 0.2416863692984652 0.2402295977345078 0 8.078505980046292e-16 8.064153086089903e-16 0 -3.304640729927205e-16 -3.28570722241361e-16 0 1.591851125940692e-17 1.581150875088607e-17 0 -1.369809012064482e-17 -1.335974083310178e-17 0 4.448214693448514e-17 4.436038057742645e-17 0 3.337179929662304e-17 3.341238808230927e-17 0 0.7249563686772375 0.720689166176957 0 0.2416521228924124 0.2402297220589856 0 0.483304245784825 0.4804594441179714 0 0.5397559218500707 0.5398758147119964 0 0.1799186406166902 0.1799586049039987 0 0.3598372812333806 0.3599172098079977 0 0.6632228864015152 0.6604180490219701 0 0.601489404125793 0.6001469318669833 0 0.7250591078953946 0.7206887932035225 0 0.5651314111314631 0.5653760467710964 0 0.6717498756407508 0.6689178777260473 0 0.6184406433861072 0.6171469622485719 0 7.495280816937185e-17 7.500511905698197e-17 0 0.48337273859693 0.4804591954690153 0 0.2416863692984652 0.2402295977345078 0 4.412729719328484e-17 4.443394369451777e-17 0 0.3767542740876422 0.3769173645140644 0 0.1883771370438207 0.1884586822570318 0 9.196330560818034e-16 9.16039611256267e-16 0 -3.141520754835669e-16 -3.132689622985033e-16 0 -1.369809012064482e-17 -1.335974083310178e-17 0 -2.74655998886374e-17 -2.747170066352814e-17 0 2.55462076578714e-17 2.554731688966972e-17 0 5.28248567748914e-18 5.281376445690822e-18 0 0.539755921850071 0.5398758147119967 0 0.1799186406166902 0.1799586049039987 0 0.3598372812333806 0.3599172098079977 0 9.408622377499588e-17 9.408788762269336e-17 0 2.311118919635737e-16 2.311568158514055e-16 0 -1.794725043801083e-16 -1.795251928905284e-16 0 0.3598372812333807 0.3599172098079978 0 0.1799186406166902 0.1799586049039988 0 0.539755921850071 0.5398758147119967 0 1.040737146435913e-16 1.040775969548854e-16 0 0.3598372812333807 0.3599172098079978 0 0.1799186406166902 0.1799586049039988 0 0.7204181326740253 0.7253620702403719 0 0.5999766587913891 0.6017045665547884 0 0.6601973957327071 0.66353331839758 0 9.500939913565453e-17 9.506969081364799e-17 0 7.987700328701081e-16 8.006074523335721e-16 0 -3.359263754488819e-16 -3.381278944975314e-16 0 0.4802787551160168 0.4835747134935811 0 0.2401393775580087 0.2417873567467909 0 0.7204181326740253 0.7253620702403719 0 9.500939913565453e-17 9.506969081364799e-17 0 0.4802787551160168 0.4835747134935811 0 0.2401393775580087 0.2417873567467909 0 0.5651314111314631 0.5653760467710964 0 0.6686558921598381 0.6720333957506136 0 0.6168936516456505 0.6187047212608549 0 4.444932954000229e-17 4.410966995909514e-17 0 9.057279202968129e-16 9.099077116847618e-16 0 -3.230979131291086e-16 -3.243946773955168e-16 0 0.3767542740876423 0.3769173645140645 0 0.1883771370438209 0.188458682257032 0 0.5651314111314631 0.5653760467710964 0 6.444494949630643e-17 6.424251174836097e-17 0 0.3767542740876423 0.3769173645140645 0 0.1883771370438209 0.188458682257032 0 4.856618247384957e-17 4.874473837219403e-17 0 0.3767542740876422 0.3769173645140644 0 0.1883771370438207 0.1884586822570318 0 -3.921386903606597e-17 -3.923084404355127e-17 0 5.178398004388737e-16 5.180389738600346e-16 0 -1.070762107838457e-16 -1.071350574764614e-16 0 5.335253480533001e-16 5.337313114774551e-16 0 -9.923343697663249e-17 -9.928888866775113e-17 0 </DataArray>
      </PointData>
    </Piece>
  </UnstructuredGrid>
</VTKFile>
