<?xml version="1.0"?>
<VTKFile type="UnstructuredGrid" version="2.2">
  <UnstructuredGrid>
    <Piece NumberOfPoints="320" NumberOfCells="20">
      <Points>
        <DataArray type="Float64" NumberOfComponents="3" format="ascii">0.2500000000000006 0.2500000000000006 0 0.2999999999999998 0.2499999999999999 0 0.2499999999999998 0.4999999999999998 0 0.3000000000000002 0.5000000000000004 0 0.2666666666666666 0.2500000000000001 0 0.2833333333333333 0.2500000000000001 0 0.2500000000000001 0.3333333333333334 0 0.2499999999999999 0.4166666666666665 0 0.3 0.3333333333333334 0 0.2999999999999997 0.4166666666666665 0 0.2666666666666666 0.4999999999999999 0 0.2833333333333329 0.4999999999999996 0 0.2666666666666667 0.3333333333333335 0 0.2833333333333333 0.3333333333333334 0 0.2666666666666668 0.4166666666666669 0 0.2833333333333331 0.4166666666666664 0 0.3000000000000005 0.2500000000000006 0 0.5 0.2499999999999999 0 0.2999999999999997 0.4999999999999997 0 0.5000000000000003 0.3000000000000003 0 0.3666666666666666 0.2500000000000001 0 0.4333333333333334 0.2500000000000001 0 0.3 0.3333333333333334 0 0.2999999999999998 0.4166666666666666 0 0.5 0.2666666666666668 0 0.4999999999999998 0.2833333333333332 0 0.3666666666666665 0.350928801500014 0 0.4333333333333329 0.3114381916835869 0 0.3666666666666668 0.2836429338333381 0 0.4333333333333334 0.2704793972278625 0 0.3666666666666668 0.3172858676666762 0 0.4333333333333331 0.2909587944557246 0 0.5000000000000011 0.2500000000000005 0 0.6999999999999998 0.2499999999999999 0 0.4999999999999997 0.2999999999999998 0 0.7000000000000005 0.4999999973658224 0 0.5666666666666667 0.2500000000000001 0 0.6333333333333335 0.2500000000000001 0 0.5000000000000001 0.2666666666666667 0 0.4999999999999999 0.2833333333333332 0 0.7000000000000003 0.3333333324552741 0 0.6999999999999998 0.4166666649105479 0 0.5666666666666665 0.3114381916835871 0 0.6333333333333329 0.3509288015000137 0 0.566666666666667 0.2704793972278625 0 0.6333333333333335 0.2836429338333381 0 0.566666666666667 0.290958794455725 0 0.6333333333333331 0.3172858676666758 0 0.7000000000000015 0.2500000000000006 0 0.7499999999999996 0.2499999999999999 0 0.6999999999999997 0.4999999999999998 0 0.7500000000000007 0.5000000000000004 0 0.7166666666666668 0.2500000000000001 0 0.7333333333333336 0.2500000000000001 0 0.7000000000000002 0.3333333333333334 0 0.7 0.4166666666666665 0 0.7500000000000002 0.3333333333333334 0 0.7499999999999996 0.4166666666666665 0 0.7166666666666667 0.4999999999999999 0 0.7333333333333327 0.4999999999999996 0 0.7166666666666672 0.3333333333333335 0 0.7333333333333336 0.3333333333333334 0 0.7166666666666672 0.4166666666666669 0 0.7333333333333331 0.4166666666666664 0 0.2500000000000006 0.5000000000000011 0 0.2999999999999998 0.4999999999999997 0 0.2499999999999998 0.7499999999999996 0 0.3000000000000002 0.7500000000000007 0 0.2666666666666666 0.5000000000000001 0 0.2833333333333334 0.5000000000000001 0 0.2500000000000001 0.5833333333333335 0 0.2499999999999999 0.6666666666666664 0 0.3 0.5833333333333336 0 0.2999999999999997 0.6666666666666664 0 0.2666666666666666 0.7499999999999998 0 0.283333333333333 0.7499999999999993 0 0.2666666666666667 0.5833333333333337 0 0.2833333333333333 0.5833333333333336 0 0.2666666666666668 0.666666666666667 0 0.2833333333333332 0.6666666666666663 0 0.3000000000000005 0.5000000000000012 0 0.5 0.6999999999999996 0 0.2999999999999997 0.7499999999999997 0 0.5000000000000003 0.7500000000000006 0 0.3666666666666666 0.649071198499986 0 0.4333333333333334 0.6885618083164129 0 0.3 0.5833333333333335 0 0.2999999999999998 0.6666666666666665 0 0.5 0.716666666666667 0 0.4999999999999998 0.7333333333333331 0 0.3666666666666665 0.7499999999999999 0 0.4333333333333329 0.7499999999999993 0 0.3666666666666668 0.6827141323333245 0 0.4333333333333334 0.7090412055442754 0 0.3666666666666668 0.7163570661666625 0 0.4333333333333331 0.7295206027721373 0 0.7000000000000014 0.5000000000000011 0 0.7499999999999996 0.4999999999999997 0 0.5000000013170888 0.6999999999999996 0 0.7500000000000006 0.7000000000000007 0 0.7166666666666668 0.5000000000000001 0 0.7333333333333335 0.5000000000000001 0 0.6885618083164129 0.5666666666666668 0 0.649071198499986 0.6333333333333332 0 0.7500000000000002 0.5666666666666669 0 0.7499999999999996 0.6333333333333332 0 0.5833333342113926 0.7 0 0.6666666671056956 0.6999999999999994 0 0.7090412055442756 0.5666666666666669 0 0.7295206027721378 0.5666666666666669 0 0.6827141323333245 0.6333333333333337 0 0.7163570661666617 0.6333333333333331 0 0.5000000000000011 0.7000000000000015 0 0.7499999999999998 0.6999999999999996 0 0.4999999999999996 0.7499999999999997 0 0.7500000000000004 0.7500000000000007 0 0.5833333333333334 0.7000000000000002 0 0.6666666666666667 0.7000000000000003 0 0.5000000000000001 0.7166666666666669 0 0.4999999999999999 0.7333333333333333 0 0.7500000000000002 0.716666666666667 0 0.7499999999999998 0.7333333333333329 0 0.5833333333333333 0.7499999999999999 0 0.6666666666666661 0.7499999999999992 0 0.5833333333333337 0.7166666666666672 0 0.6666666666666669 0.716666666666667 0 0.5833333333333337 0.7333333333333338 0 0.6666666666666663 0.7333333333333331 0 5.204170427930421e-17 8.847089727481715e-17 0 0.2500000000000001 3.353798720221827e-17 0 1.098658201451978e-17 0.25 0 0.2500000000000001 0.2500000000000001 0 0.08333333333333336 8.178379666401029e-17 0 0.1666666666666667 3.617739970241259e-17 0 4.280255587116242e-17 0.08333333333333337 0 -4.800672629909284e-17 0.1666666666666666 0 0.25 0.08333333333333334 0 0.25 0.1666666666666667 0 0.0833333333333333 0.2499999999999999 0 0.1666666666666666 0.2499999999999999 0 0.0833333333333334 0.08333333333333338 0 0.1666666666666667 0.08333333333333334 0 0.08333333333333341 0.1666666666666667 0 0.1666666666666666 0.1666666666666666 0 0.2500000000000006 8.847089727481715e-17 0 0.5 3.353798720221827e-17 0 0.2499999999999998 0.25 0 0.5000000000000004 0.2500000000000001 0 0.3333333333333334 8.178379666401029e-17 0 0.4166666666666667 3.617739970241259e-17 0 0.2500000000000001 0.08333333333333337 0 0.2499999999999999 0.1666666666666666 0 0.5 0.08333333333333334 0 0.4999999999999999 0.1666666666666667 0 0.3333333333333333 0.2499999999999999 0 0.4166666666666663 0.2499999999999999 0 0.3333333333333335 0.08333333333333338 0 0.4166666666666667 0.08333333333333334 0 0.3333333333333335 0.1666666666666667 0 0.4166666666666665 0.1666666666666666 0 0.5000000000000011 8.847089727481715e-17 0 0.7499999999999998 3.353798720221827e-17 0 0.4999999999999996 0.25 0 0.7500000000000004 0.2500000000000001 0 0.5833333333333334 8.178379666401029e-17 0 0.6666666666666667 3.617739970241259e-17 0 0.5000000000000001 0.08333333333333337 0 0.4999999999999999 0.1666666666666666 0 0.7500000000000002 0.08333333333333334 0 0.7499999999999998 0.1666666666666667 0 0.5833333333333333 0.2499999999999999 0 0.6666666666666661 0.2499999999999999 0 0.5833333333333337 0.08333333333333338 0 0.6666666666666669 0.08333333333333334 0 0.5833333333333337 0.1666666666666667 0 0.6666666666666663 0.1666666666666666 0 0.7500000000000016 8.847089727481715e-17 0 0.9999999999999998 3.353798720221827e-17 0 0.7499999999999997 0.25 0 1.000000000000001 0.2500000000000001 0 0.8333333333333336 8.178379666401029e-17 0 0.916666666666667 3.617739970241259e-17 0 0.7500000000000003 0.08333333333333337 0 0.7499999999999998 0.1666666666666666 0 1 0.08333333333333334 0 0.9999999999999997 0.1666666666666667 0 0.8333333333333333 0.2499999999999999 0 0.9166666666666656 0.2499999999999999 0 0.8333333333333339 0.08333333333333338 0 0.916666666666667 0.08333333333333334 0 0.8333333333333339 0.1666666666666667 0 0.9166666666666662 0.1666666666666666 0 5.204170427930421e-17 0.2500000000000006 0 0.2500000000000001 0.2499999999999999 0 1.098658201451978e-17 0.4999999999999998 0 0.2500000000000001 0.5000000000000004 0 0.08333333333333336 0.2500000000000001 0 0.1666666666666667 0.2500000000000001 0 4.280255587116242e-17 0.3333333333333334 0 -4.800672629909284e-17 0.4166666666666665 0 0.25 0.3333333333333334 0 0.25 0.4166666666666665 0 0.0833333333333333 0.4999999999999999 0 0.1666666666666666 0.4999999999999996 0 0.0833333333333334 0.3333333333333335 0 0.1666666666666667 0.3333333333333334 0 0.08333333333333341 0.4166666666666669 0 0.1666666666666666 0.4166666666666664 0 0.7500000000000016 0.2500000000000006 0 0.9999999999999998 0.2499999999999999 0 0.7499999999999997 0.4999999999999998 0 1.000000000000001 0.5000000000000004 0 0.8333333333333336 0.2500000000000001 0 0.916666666666667 0.2500000000000001 0 0.7500000000000003 0.3333333333333334 0 0.7499999999999998 0.4166666666666665 0 1 0.3333333333333334 0 0.9999999999999997 0.4166666666666665 0 0.8333333333333333 0.4999999999999999 0 0.9166666666666656 0.4999999999999996 0 0.8333333333333339 0.3333333333333335 0 0.916666666666667 0.3333333333333334 0 0.8333333333333339 0.4166666666666669 0 0.9166666666666662 0.4166666666666664 0 5.204170427930421e-17 0.5000000000000011 0 0.2500000000000001 0.4999999999999997 0 1.098658201451978e-17 0.7499999999999996 0 0.2500000000000001 0.7500000000000007 0 0.08333333333333336 0.5000000000000001 0 0.1666666666666667 0.5000000000000001 0 4.280255587116242e-17 0.5833333333333335 0 -4.800672629909284e-17 0.6666666666666664 0 0.25 0.5833333333333336 0 0.25 0.6666666666666664 0 0.0833333333333333 0.7499999999999998 0 0.1666666666666666 0.7499999999999993 0 0.0833333333333334 0.5833333333333337 0 0.1666666666666667 0.5833333333333336 0 0.08333333333333341 0.666666666666667 0 0.1666666666666666 0.6666666666666663 0 0.7500000000000016 0.5000000000000011 0 0.9999999999999998 0.4999999999999997 0 0.7499999999999997 0.7499999999999996 0 1.000000000000001 0.7500000000000007 0 0.8333333333333336 0.5000000000000001 0 0.916666666666667 0.5000000000000001 0 0.7500000000000003 0.5833333333333335 0 0.7499999999999998 0.6666666666666664 0 1 0.5833333333333336 0 0.9999999999999997 0.6666666666666664 0 0.8333333333333333 0.7499999999999998 0 0.9166666666666656 0.7499999999999993 0 0.8333333333333339 0.5833333333333337 0 0.916666666666667 0.5833333333333336 0 0.8333333333333339 0.666666666666667 0 0.9166666666666662 0.6666666666666663 0 5.204170427930421e-17 0.7500000000000014 0 0.2500000000000001 0.7499999999999999 0 1.098658201451978e-17 0.9999999999999997 0 0.2500000000000001 1.000000000000001 0 0.08333333333333336 0.7500000000000001 0 0.1666666666666667 0.7500000000000002 0 4.280255587116242e-17 0.8333333333333335 0 -4.800672629909284e-17 0.9166666666666664 0 0.25 0.8333333333333336 0 0.25 0.9166666666666663 0 0.0833333333333333 0.9999999999999998 0 0.1666666666666666 0.9999999999999989 0 0.0833333333333334 0.8333333333333339 0 0.1666666666666667 0.8333333333333336 0 0.08333333333333341 0.9166666666666672 0 0.1666666666666666 0.9166666666666662 0 0.2500000000000006 0.7500000000000014 0 0.5 0.7499999999999999 0 0.2499999999999998 0.9999999999999997 0 0.5000000000000004 1.000000000000001 0 0.3333333333333334 0.7500000000000001 0 0.4166666666666667 0.7500000000000002 0 0.2500000000000001 0.8333333333333335 0 0.2499999999999999 0.9166666666666664 0 0.5 0.8333333333333336 0 0.4999999999999999 0.9166666666666663 0 0.3333333333333333 0.9999999999999998 0 0.4166666666666663 0.9999999999999989 0 0.3333333333333335 0.8333333333333339 0 0.4166666666666667 0.8333333333333336 0 0.3333333333333335 0.9166666666666672 0 0.4166666666666665 0.9166666666666662 0 0.5000000000000011 0.7500000000000014 0 0.7499999999999998 0.7499999999999999 0 0.4999999999999996 0.9999999999999997 0 0.7500000000000004 1.000000000000001 0 0.5833333333333334 0.7500000000000001 0 0.6666666666666667 0.7500000000000002 0 0.5000000000000001 0.8333333333333335 0 0.4999999999999999 0.9166666666666664 0 0.7500000000000002 0.8333333333333336 0 0.7499999999999998 0.9166666666666663 0 0.5833333333333333 0.9999999999999998 0 0.6666666666666661 0.9999999999999989 0 0.5833333333333337 0.8333333333333339 0 0.6666666666666669 0.8333333333333336 0 0.5833333333333337 0.9166666666666672 0 0.6666666666666663 0.9166666666666662 0 0.7500000000000016 0.7500000000000014 0 0.9999999999999998 0.7499999999999999 0 0.7499999999999997 0.9999999999999997 0 1.000000000000001 1.000000000000001 0 0.8333333333333336 0.7500000000000001 0 0.916666666666667 0.7500000000000002 0 0.7500000000000003 0.8333333333333335 0 0.7499999999999998 0.9166666666666664 0 1 0.8333333333333336 0 0.9999999999999997 0.9166666666666663 0 0.8333333333333333 0.9999999999999998 0 0.9166666666666656 0.9999999999999989 0 0.8333333333333339 0.8333333333333339 0 0.916666666666667 0.8333333333333336 0 0.8333333333333339 0.9166666666666672 0 0.9166666666666662 0.9166666666666662 0 </DataArray>
      </Points>
      <Cells>
        <DataArray type="Int32" Name="connectivity" format="ascii">0 1 3 2 4 5 8 9 10 11 6 7 12 13 14 15 16 17 19 18 20 21 24 25 26 27 22 23 28 29 30 31 32 33 35 34 36 37 40 41 42 43 38 39 44 45 46 47 48 49 51 50 52 53 56 57 58 59 54 55 60 61 62 63 64 65 67 66 68 69 72 73 74 75 70 71 76 77 78 79 80 81 83 82 84 85 88 89 90 91 86 87 92 93 94 95 96 97 99 98 100 101 104 105 106 107 102 103 108 109 110 111 112 113 115 114 116 117 120 121 122 123 118 119 124 125 126 127 128 129 131 130 132 133 136 137 138 139 134 135 140 141 142 143 144 145 147 146 148 149 152 153 154 155 150 151 156 157 158 159 160 161 163 162 164 165 168 169 170 171 166 167 172 173 174 175 176 177 179 178 180 181 184 185 186 187 182 183 188 189 190 191 192 193 195 194 196 197 200 201 202 203 198 199 204 205 206 207 208 209 211 210 212 213 216 217 218 219 214 215 220 221 222 223 224 225 227 226 228 229 232 233 234 235 230 231 236 237 238 239 240 241 243 242 244 245 248 249 250 251 246 247 252 253 254 255 256 257 259 258 260 261 264 265 266 267 262 263 268 269 270 271 272 273 275 274 276 277 280 281 282 283 278 279 284 285 286 287 288 289 291 290 292 293 296 297 298 299 294 295 300 301 302 303 304 305 307 306 308 309 312 313 314 315 310 311 316 317 318 319 </DataArray>
        <DataArray type="Int32" Name="offsets" format="ascii">16 32 48 64 80 96 112 128 144 160 176 192 208 224 240 256 272 288 304 320 </DataArray>
        <DataArray type="Int8" Name="types" format="ascii">70 70 70 70 70 70 70 70 70 70 70 70 70 70 70 70 70 70 70 70 </DataArray>
      </Cells>
      <CellData>
        <DataArray type="UInt8" Name="vtkGhostType" format="ascii" RangeMin="0" RangeMax="1">0 0 0 0 0 0 0 0 0 0 0 0 0 0 0 0 0 0 0 0 </DataArray>
        <DataArray type="Int64" IdType="1" Name="vtkOriginalCellIds" format="ascii" RangeMin="0" RangeMax="19">0 1 2 3 4 5 6 7 8 9 10 11 12 13 14 15 16 17 18 19 </DataArray>
      </CellData>
      <PointData Vectors="solution">
        <DataArray type="Int64" IdType="1" Name="vtkOriginalPointIds" format="ascii" RangeMin="0" RangeMax="319">0 1 2 3 4 5 6 7 8 9 10 11 12 13 14 15 16 17 18 19 20 21 22 23 24 25 26 27 28 29 30 31 32 33 34 35 36 37 38 39 40 41 42 43 44 45 46 47 48 49 50 51 52 53 54 55 56 57 58 59 60 61 62 63 64 65 66 67 68 69 70 71 72 73 74 75 76 77 78 79 80 81 82 83 84 85 86 87 88 89 90 91 92 93 94 95 96 97 98 99 100 101 102 103 104 105 106 107 108 109 110 111 112 113 114 115 116 117 118 119 120 121 122 123 124 125 126 127 128 129 130 131 132 133 134 135 136 137 138 139 140 141 142 143 144 145 146 147 148 149 150 151 152 153 154 155 156 157 158 159 160 161 162 163 164 165 166 167 168 169 170 171 172 173 174 175 176 177 178 179 180 181 182 183 184 185 186 187 188 189 190 191 192 193 194 195 196 197 198 199 200 201 202 203 204 205 206 207 208 209 210 211 212 213 214 215 216 217 218 219 220 221 222 223 224 225 226 227 228 229 230 231 232 233 234 235 236 237 238 239 240 241 242 243 244 245 246 247 248 249 250 251 252 253 254 255 256 257 258 259 260 261 262 263 264 265 266 267 268 269 270 271 272 273 274 275 276 277 278 279 280 281 282 283 284 285 286 287 288 289 290 291 292 293 294 295 296 297 298 299 300 301 302 303 304 305 306 307 308 309 310 311 312 313 314 315 316 317 318 319 </DataArray>
        <DataArray type="UInt8" Name="vtkGhostType" format="ascii" RangeMin="0" RangeMax="0">0 0 0 0 0 0 0 0 0 0 0 0 0 0 0 0 0 0 0 0 0 0 0 0 0 0 0 0 0 0 0 0 0 0 0 0 0 0 0 0 0 0 0 0 0 0 0 0 0 0 0 0 0 0 0 0 0 0 0 0 0 0 0 0 0 0 0 0 0 0 0 0 0 0 0 0 0 0 0 0 0 0 0 0 0 0 0 0 0 0 0 0 0 0 0 0 0 0 0 0 0 0 0 0 0 0 0 0 0 0 0 0 0 0 0 0 0 0 0 0 0 0 0 0 0 0 0 0 0 0 0 0 0 0 0 0 0 0 0 0 0 0 0 0 0 0 0 0 0 0 0 0 0 0 0 0 0 0 0 0 0 0 0 0 0 0 0 0 0 0 0 0 0 0 0 0 0 0 0 0 0 0 0 0 0 0 0 0 0 0 0 0 0 0 0 0 0 0 0 0 0 0 0 0 0 0 0 0 0 0 0 0 0 0 0 0 0 0 0 0 0 0 0 0 0 0 0 0 0 0 0 0 0 0 0 0 0 0 0 0 0 0 0 0 0 0 0 0 0 0 0 0 0 0 0 0 0 0 0 0 0 0 0 0 0 0 0 0 0 0 0 0 0 0 0 0 0 0 0 0 0 0 0 0 0 0 0 0 0 0 0 0 0 0 0 0 0 0 0 0 0 0 0 0 0 0 0 0 0 0 0 0 0 0 0 0 0 0 0 0 </DataArray>
        <DataArray type="Float64" Name="solution" format="ascii" NumberOfComponents="3">0.5652006434176489 0.5653062326799256 0 0.5962441819780477 0.5973378680991983 0 0.7249563686772368 0.7206891661769563 0 0.8654234093044182 0.8616652003279677 0 0.5755484896044468 0.5759834444863483 0 0.5858963357912474 0.5866606562927735 0 0.6184525518375101 0.6171005438456012 0 0.6717044602573735 0.6688948550112788 0 0.6859705910868378 0.6854469788421214 0 0.7756970001956265 0.773556089585043 0 0.7717787155529638 0.7676811775606267 0 0.8186010624286892 0.8146731889442953 0 0.6409585649206195 0.6398826888444414 0 0.6634645780037285 0.6626648338432811 0 0.7063686402367919 0.7037819332025342 0 0.7410328202162088 0.7386690113937882 0 0.5962441819780497 0.5973378680992003 0 0.7204183362196546 0.7254644097763006 0 0.8654234093044162 0.8616652003279657 0 0.8617929833383522 0.8654853952074428 0 0.6376355667252505 0.6400467153248994 0 0.6790269514724528 0.6827555625506003 0 0.6859705910868377 0.6854469788421212 0 0.7756970001956269 0.7735560895850434 0 0.7675432185925541 0.7721380715866817 0 0.8146681009654517 0.8188117333970608 0 0.805208556173767 0.8054030258757937 0 0.8168881670117807 0.819110435525418 0 0.693493229874756 0.6951654855085311 0 0.7249806899855625 0.7282071868755399 0 0.7493508930242621 0.7502842556921631 0 0.7709344284986714 0.7736588112004789 0 0.720418336219657 0.725464409776303 0 0.5758487965741876 0.5769541581637085 0 0.8617929833383502 0.8654853952074408 0 0.8655055976269115 0.8616648989493029 0 0.6722284896711659 0.6759609925721035 0 0.6240386431226769 0.6264575753679061 0 0.7675432185925538 0.7721380715866814 0 0.8146681009654518 0.8188117333970609 0 0.6724010635917624 0.6718577384255735 0 0.7689533306093378 0.7667613186874391 0 0.8117671789269295 0.8139856254754406 0 0.7971230386561723 0.7972999480492103 0 0.7187413860897539 0.7219692035398827 0 0.681733441633842 0.6834050329283409 0 0.7652542825083417 0.7679774145076617 0 0.7394282401450072 0.7403524904887755 0 0.5758487965741881 0.5769541581637091 0 0.5397064116628213 0.539826595260561 0 0.8655056006789439 0.86166490194922 0 0.7250591078953929 0.7206887932035208 0 0.5638013349370657 0.5645783038626596 0 0.5517538732999433 0.5522024495616101 0 0.672401064609106 0.6718577394255454 0 0.7689533326440243 0.7667613206873821 0 0.6014906437403456 0.6001139945748812 0 0.663274875817871 0.660401393889203 0 0.8186901030844269 0.8146728657006537 0 0.7718746054899123 0.7676808294520895 0 0.6487642576528518 0.6479431578086566 0 0.6251274506965989 0.6240285761917692 0 0.7337271803686387 0.7313080117546545 0 0.6985010280932554 0.6958547028219293 0 0.7249563686772398 0.7206891661769593 0 0.8654234093044163 0.8616652003279657 0 0.5397559218500709 0.5398758147119966 0 0.575888364014861 0.5769730658176708 0 0.7717787155529638 0.7676811775606267 0 0.8186010624286908 0.814673188944297 0 0.6632228864015153 0.6604180490219702 0 0.6014894041257931 0.6001469318669834 0 0.7689117275412317 0.7667678221578679 0 0.6724000457780466 0.6718704439877696 0 0.5518000692383345 0.5522415650805549 0 0.5638442166265984 0.5646073154491136 0 0.6984525001147538 0.6958679734006025 0 0.7336821138279928 0.7313178977792353 0 0.6251262846765442 0.6240547692405787 0 0.6487631652272957 0.6479626066141745 0 0.8654234093044195 0.861665200327969 0 0.8617928205018481 0.8654035235786992 0 0.5758883640148618 0.5769730658176716 0 0.720418132674024 0.7253620702403706 0 0.7971166059027931 0.7972872034172341 0 0.811770291536099 0.8139389440585858 0 0.7689117275412318 0.766767822157868 0 0.6724000457780467 0.6718704439877696 0 0.8146679245592392 0.8187230391325888 0 0.7675430286166338 0.7720425546864818 0 0.6240649535679162 0.626436067291905 0 0.6722415431209722 0.6758990687661398 0 0.7394327217911669 0.7403368247087905 0 0.7652607087310561 0.7679256522944367 0 0.6817488376795412 0.6833864460003474 0 0.7187511259260143 0.7219123605302884 0 0.8655056006789406 0.8616649019492164 0 0.7250591078953958 0.7206887932035237 0 0.8617928191074422 0.865403522161697 0 0.5971169504842485 0.5964385960575807 0 0.8186901030844269 0.8146728657006536 0 0.7718746054899108 0.7676808294520882 0 0.8191437118055367 0.8167892484114723 0 0.8055007598230566 0.8051024804924727 0 0.682411722091679 0.6792720608215416 0 0.6397643362879655 0.6378553284395629 0 0.7735675295663771 0.7757485467936578 0 0.6853422400253146 0.6860935714256211 0 0.7735663819009165 0.7709501858814944 0 0.7279890519962977 0.7251111233515179 0 0.7502552853113578 0.7493534298081678 0 0.6950098107996624 0.6936043791238661 0 0.8617928205018446 0.8654035235786957 0 0.5971169504842501 0.5964385960575822 0 0.7204181326740264 0.725362070240373 0 0.5651314111314624 0.5653760467710957 0 0.7735675304959809 0.7757485477383257 0 0.6853422404901148 0.6860935718979533 0 0.81466792455924 0.8187230391325896 0 0.7675430286166331 0.7720425546864812 0 0.5864551040333202 0.5860844129620861 0 0.5757932575823923 0.5757302298665919 0 0.6686558921598381 0.6720333957506136 0 0.6168936516456519 0.6187047212608563 0 0.7385969843839321 0.7411768304090871 0 0.6625260442086265 0.663630621685587 0 0.7036264382718844 0.7066051130798497 0 0.6397098479271395 0.6411676714732218 0 2.353120379457087e-17 2.353559983070086e-17 0 1.171097739154538e-16 1.171258927145971e-16 0 8.57348355226926e-17 8.574509294032922e-17 0 0.5652006434176468 0.5653062326799235 0 7.041152969791244e-17 7.042276401246683e-17 0 7.022944801211223e-17 7.023872853283108e-17 0 5.472406050153185e-17 5.473236412533293e-17 0 -5.004114916013898e-17 -5.005433726852892e-17 0 0.1884002144725488 0.1884354108933077 0 0.3768004289450976 0.3768708217866154 0 0.1884002144725486 0.1884354108933076 0 0.376800428945097 0.3768708217866149 0 0.06280007149084969 0.06281180363110267 0 0.1256001429816992 0.1256236072622051 0 0.1256001429816993 0.1256236072622053 0 0.2512002859633981 0.25124721452441 0 3.158177170696079e-16 3.158709579516266e-16 0 7.436437285456213e-17 7.484724449425112e-17 0 0.5652006434176458 0.5653062326799225 0 0.7204183362196555 0.7254644097763016 0 2.220079301569615e-16 2.22497254373282e-16 0 1.221418564723453e-16 1.225435682060641e-16 0 0.188400214472549 0.1884354108933079 0 0.3768004289450971 0.376870821786615 0 0.2401394454065517 0.2418214699254337 0 0.4802788908131033 0.4836429398508673 0 0.6169398743516488 0.6186922917120486 0 0.6686791052856514 0.6720783507441743 0 0.2056466247838832 0.2062307639040165 0 0.2228930350952174 0.224026116914725 0 0.4112932495677663 0.4124615278080329 0 0.4457860701904344 0.4480522338294496 0 3.514310270632183e-16 3.537832748455897e-16 0 6.322887097609458e-17 6.289707599282731e-17 0 0.7204183362196547 0.7254644097763007 0 0.5397064116628211 0.5398265952605608 0 2.409025508081533e-16 2.419418642381134e-16 0 1.108542329792436e-16 1.110971121068315e-16 0 0.2401394454065518 0.2418214699254338 0 0.4802788908131029 0.4836429398508669 0 0.1799021372209403 0.1799421984201869 0 0.359804274441881 0.359884396840374 0 0.6601810280340434 0.663585138271054 0 0.5999437198484325 0.6017058667658077 0 0.2200603426780146 0.2211950460903515 0 0.1999812399494775 0.2005686222552692 0 0.4401206853560291 0.4423900921807028 0 0.3999624798989548 0.4011372445105383 0 2.463310587303154e-16 2.461304402004184e-16 0 -3.74496552978679e-17 -3.745799471020496e-17 0 0.5397064116628213 0.539826595260561 0 -1.823336814567715e-15 -1.823762124596905e-15 0 1.279081407441284e-16 1.279320470594946e-16 0 3.524266797703205e-17 3.524822758525675e-17 0 0.1799021372209404 0.1799421984201869 0 0.3598042744418807 0.3598843968403738 0 -2.60745465762329e-16 -2.608099572177356e-16 0 5.795289342326595e-16 5.796451300445558e-16 0 0.3598042744418807 0.3598843968403739 0 0.1799021372209426 0.1799421984201892 0 0.1199347581472932 0.1199614656134576 0 0.05996737907364652 0.05998073280672871 0 0.2398695162945864 0.2399229312269152 0 0.1199347581472943 0.1199614656134587 0 2.112345890937373e-16 2.112682920374004e-16 0 0.5652006434176462 0.565306232679923 0 1.292578122584035e-16 1.286424600339287e-16 0 0.724956368677238 0.7206891661769576 0 0.1884002144725488 0.1884354108933077 0 0.3768004289450974 0.3768708217866152 0 1.223908178387903e-16 1.221627325877228e-16 0 -9.042398695226367e-17 -8.989833970166017e-17 0 0.61845255183751 0.6171005438456011 0 0.6717044602573735 0.6688948550112789 0 0.2416521228924124 0.2402297220589856 0 0.4833042457848245 0.4804594441179709 0 0.2061508506125035 0.2057001812818672 0 0.4123017012250066 0.411400362563734 0 0.2239014867524581 0.2229649516704266 0 0.4478029735049156 0.4459299033408525 0 0.5397064116628211 0.5398265952605608 0 1.052796712308542e-15 1.053011869146838e-15 0 0.7250591078953957 0.7206887932035236 0 -2.480850169494494e-15 -2.465392682420301e-15 0 0.3598042744418802 0.3598843968403733 0 0.1799021372209399 0.1799421984201864 0 0.6014906437403451 0.6001139945748809 0 0.6632748758178706 0.6604013938892025 0 -8.380671596926644e-16 -8.358858715972601e-16 0 1.068663700705222e-15 1.064495660440283e-15 0 0.48337273859693 0.4804591954690153 0 0.2416863692984683 0.2402295977345109 0 0.4009937624935622 0.4000759963832528 0 0.200496881246781 0.2000379981916262 0 0.4421832505452457 0.4402675959261336 0 0.2210916252726249 0.2201337979630688 0 2.357778682859634e-16 2.344084969499472e-16 0 0.7249563686772377 0.7206891661769572 0 8.475656937331355e-17 8.491194090479516e-17 0 0.5397559218500706 0.5398758147119963 0 0.2416521228924126 0.2402297220589858 0 0.4833042457848249 0.4804594441179713 0 1.2966901846087e-16 1.293203578666687e-16 0 -8.263426900320805e-17 -8.2353146978326e-17 0 0.6632228864015152 0.6604180490219701 0 0.6014894041257932 0.6001469318669834 0 0.1799186406166902 0.1799586049039988 0 0.3598372812333807 0.3599172098079979 0 0.2210742954671719 0.2201393496739902 0 0.4421485909343434 0.44027869934798 0 0.2004964680419311 0.2000489772889945 0 0.4009929360838621 0.4000979545779889 0 0.7250591078953912 0.720688793203519 0 7.339145229282331e-16 7.300885503841589e-16 0 0.5651314111314638 0.5653760467710971 0 -1.963622797453294e-15 -1.964185271335308e-15 0 0.4833727385969291 0.4804591954690143 0 0.2416863692984645 0.2402295977345072 0 0.6717498756407498 0.6689178777260463 0 0.6184406433861076 0.6171469622485724 0 -3.161027383091764e-16 -3.143588977685288e-16 0 7.157584869933101e-16 7.144871883002515e-16 0 0.3767542740876426 0.3769173645140647 0 0.1883771370438236 0.1884586822570347 0 0.4478332504271656 0.4459452518173632 0 0.2239166252135825 0.2229726259086813 0 0.412293762257403 0.4114313081657129 0 0.2061468811287035 0.2057156540828584 0 1.194195882700729e-16 1.198284756018567e-16 0 0.5397559218500713 0.539875814711997 0 -1.747810902004197e-17 -1.748199133133608e-17 0 -1.808530786692431e-15 -1.808951740159893e-15 0 0.1799186406166903 0.1799586049039988 0 0.3598372812333804 0.3599172098079975 0 9.795551645518818e-17 9.79727095480621e-17 0 -2.717685964544595e-17 -2.718517888393333e-17 0 0.3598372812333799 0.3599172098079971 0 0.1799186406166914 0.179958604904 0 2.311118919635737e-16 2.311568158514055e-16 0 1.850485014661911e-15 1.850883228877507e-15 0 0.1199457604111265 0.1199724032693323 0 0.2398915208222533 0.2399448065386648 0 0.05997288020556314 0.05998620163466599 0 0.1199457604111275 0.1199724032693332 0 0.5397559218500709 0.5398758147119966 0 0.7204181326740258 0.7253620702403724 0 1.052885347160156e-15 1.05309998351313e-15 0 -2.444434335314965e-15 -2.461801216423105e-15 0 0.5999766587913888 0.6017045665547881 0 0.660197395732707 0.6635333183975799 0 0.3598372812333804 0.3599172098079975 0 0.1799186406166909 0.1799586049039994 0 0.4802787551160161 0.4835747134935804 0 0.2401393775580096 0.2417873567467918 0 7.987700328701081e-16 8.006074523335721e-16 0 3.392204197227055e-15 3.40882251983157e-15 0 0.3999844391942578 0.4011363777031907 0 0.4401315971551375 0.4423555455983861 0 0.1999922195971285 0.2005681888515949 0 0.2200657985775702 0.2211777727991945 0 0.720418132674022 0.7253620702403687 0 0.5651314111314633 0.5653760467710965 0 1.089776013297448e-15 1.096563502485959e-15 0 -1.94761521749215e-15 -1.94881720745331e-15 0 0.6686558921598376 0.672033395750613 0 0.61689365164565 0.6187047212608545 0 0.4802787551160165 0.4835747134935809 0 0.2401393775580093 0.2417873567467915 0 0.3767542740876412 0.3769173645140634 0 0.188377137043822 0.1884586822570331 0 9.057279202968129e-16 9.099077116847618e-16 0 3.151998135676193e-15 3.160883890540402e-15 0 0.4457705947732233 0.4480222638337402 0 0.4112624344304329 0.4124698141739025 0 0.2228852973866115 0.22401113191687 0 0.205631217215218 0.2062349070869528 0 0.565131411131461 0.5653760467710943 0 5.661892537499205e-16 5.665918797470709e-16 0 1.085442235214648e-15 1.085724624937976e-15 0 -7.842773807213906e-18 -7.846168808710965e-18 0 0.3767542740876413 0.3769173645140635 0 0.1883771370438204 0.1884586822570315 0 0.3767542740876412 0.3769173645140634 0 0.188377137043822 0.1884586822570331 0 -5.540059532135965e-16 -5.542707633303671e-16 0 2.98133769255503e-16 2.982503309735688e-16 0 5.178398004388737e-16 5.180389738600346e-16 0 9.595410269971497e-16 9.599439005081342e-16 0 0.2511695160584265 0.2512782430093746 0 0.1255847580292134 0.1256391215046875 0 0.1255847580292127 0.1256391215046868 0 0.06279237901460766 0.0628195607523447 0 </DataArray>
      </PointData>
    </Piece>
  </UnstructuredGrid>
</VTKFile>
