<?xml version="1.0"?>
<VTKFile type="UnstructuredGrid" version="2.2">
  <UnstructuredGrid>
    <Piece NumberOfPoints="224" NumberOfCells="72">
      <Points>
        <DataArray type="Float64" NumberOfComponents="3" format="ascii">0.25 0.25 0 0.2999999999999999 0.25 0 0.2666666666666666 0.2499999999999999 0 0.2833333333333333 0.2500000000000001 0 0.25 0.4999999999999999 0 0.2499999999999999 0.3333333333333333 0 0.2500000000000001 0.4166666666666667 0 0.2999999999999999 0.5 0 0.2666666666666666 0.4999999999999999 0 0.2833333333333333 0.5000000000000001 0 0.2999999999999998 0.25 0 0.4999999999999999 0.25 0 0.3666666666666665 0.2499999999999999 0 0.4333333333333333 0.2500000000000001 0 0.5 0.3 0 0.4999999999999999 0.2666666666666666 0 0.5000000000000001 0.2833333333333333 0 0.2999999999999998 0.4999999999999999 0 0.3666666666666665 0.350928801500014 0 0.4333333333333333 0.3114381916835873 0 0.4999999999999999 0.25 0 0.7000000000000002 0.25 0 0.5666666666666665 0.2499999999999999 0 0.6333333333333335 0.2500000000000001 0 0.4999999999999999 0.2999999999999999 0 0.4999999999999999 0.2666666666666666 0 0.5000000000000001 0.2833333333333333 0 0.7000000000000002 0.4999999973658222 0 0.5666666666666665 0.3114381916835872 0 0.6333333333333335 0.350928801500014 0 0.7 0.25 0 0.7499999999999999 0.25 0 0.7166666666666667 0.2499999999999999 0 0.7333333333333335 0.2500000000000001 0 0.7500000000000001 0.5 0 0.7499999999999999 0.3333333333333333 0 0.7500000000000001 0.4166666666666667 0 0.7 0.4999999999999999 0 0.7166666666666667 0.4999999999999999 0 0.7333333333333335 0.5000000000000001 0 0.25 0.4999999999999999 0 0.2999999999999999 0.5 0 0.2666666666666666 0.4999999999999999 0 0.2833333333333333 0.5000000000000001 0 0.25 0.7499999999999999 0 0.2499999999999999 0.5833333333333333 0 0.2500000000000001 0.6666666666666667 0 0.2999999999999999 0.7500000000000001 0 0.2666666666666666 0.7499999999999999 0 0.2833333333333333 0.7500000000000001 0 0.2999999999999998 0.4999999999999999 0 0.4999999999999999 0.7 0 0.3666666666666665 0.6490711984999858 0 0.4333333333333333 0.6885618083164129 0 0.5 0.7500000000000001 0 0.4999999999999999 0.7166666666666667 0 0.5000000000000001 0.7333333333333335 0 0.2999999999999998 0.7499999999999999 0 0.3666666666666665 0.7499999999999999 0 0.4333333333333333 0.7500000000000001 0 0.7 0.4999999999999999 0 0.5000000013170891 0.7000000000000002 0 0.6885618083164127 0.5666666666666665 0 0.6490711984999862 0.6333333333333335 0 0.7499999999999999 0.4999999999999999 0 0.7166666666666667 0.4999999999999999 0 0.7333333333333335 0.5000000000000001 0 0.7500000000000001 0.7000000000000002 0 0.7499999999999999 0.5666666666666665 0 0.7500000000000001 0.6333333333333335 0 0.4999999999999999 0.7 0 0.4999999999999999 0.7499999999999999 0 0.4999999999999999 0.7166666666666667 0 0.5000000000000001 0.7333333333333335 0 0.7500000000000001 0.7500000000000001 0 0.5833333333333333 0.7499999999999999 0 0.6666666666666667 0.7500000000000001 0 0.7499999999999999 0.7 0 0.7499999999999999 0.7166666666666667 0 0.7500000000000001 0.7333333333333335 0 -9.251858538542971e-18 0 0 -9.251858538542971e-18 0.25 0 0 0.0833333333333333 0 0 0.1666666666666667 0 0.25 -9.251858538542971e-18 0 0.0833333333333333 0 0 0.1666666666666667 0 0 0.25 0.25 0 0.0833333333333333 0.2499999999999999 0 0.1666666666666667 0.2500000000000001 0 0.2499999999999999 0.0833333333333333 0 0.2500000000000001 0.1666666666666667 0 0.25 0 0 0.25 0.25 0 0.2499999999999999 0.0833333333333333 0 0.2500000000000001 0.1666666666666667 0 0.4999999999999999 -9.251858538542971e-18 0 0.3333333333333333 0 0 0.4166666666666667 0 0 0.5 0.25 0 0.3333333333333333 0.2499999999999999 0 0.4166666666666667 0.2500000000000001 0 0.4999999999999999 0.0833333333333333 0 0.5000000000000001 0.1666666666666667 0 0.4999999999999999 0 0 0.4999999999999999 0.25 0 0.4999999999999999 0.0833333333333333 0 0.5000000000000001 0.1666666666666667 0 0.7499999999999999 -9.251858538542971e-18 0 0.5833333333333333 0 0 0.6666666666666667 0 0 0.7500000000000001 0.25 0 0.5833333333333333 0.2499999999999999 0 0.6666666666666667 0.2500000000000001 0 0.7499999999999999 0.0833333333333333 0 0.7500000000000001 0.1666666666666667 0 0.7499999999999999 0 0 0.7499999999999999 0.25 0 0.7499999999999999 0.0833333333333333 0 0.7500000000000001 0.1666666666666667 0 0.9999999999999999 -9.251858538542971e-18 0 0.8333333333333333 0 0 0.9166666666666667 0 0 1 0.25 0 0.8333333333333333 0.2499999999999999 0 0.9166666666666667 0.2500000000000001 0 0.9999999999999998 0.0833333333333333 0 1 0.1666666666666667 0 -9.251858538542971e-18 0.25 0 -9.251858538542971e-18 0.4999999999999999 0 0 0.3333333333333333 0 0 0.4166666666666667 0 0.25 0.25 0 0.0833333333333333 0.2499999999999999 0 0.1666666666666667 0.2500000000000001 0 0.25 0.5 0 0.0833333333333333 0.4999999999999999 0 0.1666666666666667 0.5000000000000001 0 0.2499999999999999 0.3333333333333333 0 0.2500000000000001 0.4166666666666667 0 0.7499999999999999 0.25 0 0.7499999999999999 0.4999999999999999 0 0.7499999999999999 0.3333333333333333 0 0.7500000000000001 0.4166666666666667 0 0.9999999999999999 0.25 0 0.8333333333333333 0.2499999999999999 0 0.9166666666666667 0.2500000000000001 0 1 0.5 0 0.8333333333333333 0.4999999999999999 0 0.9166666666666667 0.5000000000000001 0 0.9999999999999998 0.3333333333333333 0 1 0.4166666666666667 0 -9.251858538542971e-18 0.4999999999999999 0 -9.251858538542971e-18 0.7499999999999999 0 0 0.5833333333333333 0 0 0.6666666666666667 0 0.25 0.4999999999999999 0 0.0833333333333333 0.4999999999999999 0 0.1666666666666667 0.5000000000000001 0 0.25 0.7500000000000001 0 0.0833333333333333 0.7499999999999999 0 0.1666666666666667 0.7500000000000001 0 0.2499999999999999 0.5833333333333333 0 0.2500000000000001 0.6666666666666667 0 0.7499999999999999 0.4999999999999999 0 0.7499999999999999 0.7499999999999999 0 0.7499999999999999 0.5833333333333333 0 0.7500000000000001 0.6666666666666667 0 0.9999999999999999 0.4999999999999999 0 0.8333333333333333 0.4999999999999999 0 0.9166666666666667 0.5000000000000001 0 1 0.7500000000000001 0 0.8333333333333333 0.7499999999999999 0 0.9166666666666667 0.7500000000000001 0 0.9999999999999998 0.5833333333333333 0 1 0.6666666666666667 0 -9.251858538542971e-18 0.7499999999999999 0 -9.251858538542971e-18 0.9999999999999999 0 0 0.8333333333333333 0 0 0.9166666666666667 0 0.25 0.7499999999999999 0 0.0833333333333333 0.7499999999999999 0 0.1666666666666667 0.7500000000000001 0 0.25 1 0 0.0833333333333333 0.9999999999999998 0 0.1666666666666667 1 0 0.2499999999999999 0.8333333333333333 0 0.2500000000000001 0.9166666666666667 0 0.25 0.7499999999999999 0 0.25 0.9999999999999999 0 0.2499999999999999 0.8333333333333333 0 0.2500000000000001 0.9166666666666667 0 0.4999999999999999 0.7499999999999999 0 0.3333333333333333 0.7499999999999999 0 0.4166666666666667 0.7500000000000001 0 0.5 1 0 0.3333333333333333 0.9999999999999998 0 0.4166666666666667 1 0 0.4999999999999999 0.8333333333333333 0 0.5000000000000001 0.9166666666666667 0 0.4999999999999999 0.7499999999999999 0 0.4999999999999999 0.9999999999999999 0 0.4999999999999999 0.8333333333333333 0 0.5000000000000001 0.9166666666666667 0 0.7499999999999999 0.7499999999999999 0 0.5833333333333333 0.7499999999999999 0 0.6666666666666667 0.7500000000000001 0 0.7500000000000001 1 0 0.5833333333333333 0.9999999999999998 0 0.6666666666666667 1 0 0.7499999999999999 0.8333333333333333 0 0.7500000000000001 0.9166666666666667 0 0.7499999999999999 0.7499999999999999 0 0.7499999999999999 0.9999999999999999 0 0.7499999999999999 0.8333333333333333 0 0.7500000000000001 0.9166666666666667 0 0.9999999999999999 0.7499999999999999 0 0.8333333333333333 0.7499999999999999 0 0.9166666666666667 0.7500000000000001 0 1 1 0 0.8333333333333333 0.9999999999999998 0 0.9166666666666667 1 0 0.9999999999999998 0.8333333333333333 0 1 0.9166666666666667 0 </DataArray>
      </Points>
      <Cells>
        <DataArray type="Int32" Name="connectivity" format="ascii">0 1 2 3 0 4 5 6 4 7 8 9 10 11 12 13 11 14 15 16 17 14 18 19 20 21 22 23 20 24 25 26 24 27 28 29 30 31 32 33 31 34 35 36 37 34 38 39 40 41 42 43 40 44 45 46 44 47 48 49 50 51 52 53 51 54 55 56 57 54 58 59 60 61 62 63 60 64 65 66 64 67 68 69 70 71 72 73 71 74 75 76 77 74 78 79 80 81 82 83 80 84 85 86 81 87 88 89 84 87 90 91 92 93 94 95 92 96 97 98 93 99 100 101 96 99 102 103 104 105 106 107 104 108 109 110 105 111 112 113 108 111 114 115 116 117 118 119 116 120 121 122 117 123 124 125 120 123 126 127 128 129 130 131 128 132 133 134 129 135 136 137 132 135 138 139 140 141 142 143 140 144 145 146 141 147 148 149 144 147 150 151 152 153 154 155 152 156 157 158 153 159 160 161 156 159 162 163 164 165 166 167 164 168 169 170 165 171 172 173 168 171 174 175 176 177 178 179 176 180 181 182 177 183 184 185 180 183 186 187 188 189 190 191 188 192 193 194 189 195 196 197 192 195 198 199 200 201 202 203 200 204 205 206 201 207 208 209 204 207 210 211 212 213 214 215 212 216 217 218 213 219 220 221 216 219 222 223 </DataArray>
        <DataArray type="Int32" Name="offsets" format="ascii">4 8 12 16 20 24 28 32 36 40 44 48 52 56 60 64 68 72 76 80 84 88 92 96 100 104 108 112 116 120 124 128 132 136 140 144 148 152 156 160 164 168 172 176 180 184 188 192 196 200 204 208 212 216 220 224 228 232 236 240 244 248 252 256 260 264 268 272 276 280 284 288 </DataArray>
        <DataArray type="Int8" Name="types" format="ascii">68 68 68 68 68 68 68 68 68 68 68 68 68 68 68 68 68 68 68 68 68 68 68 68 68 68 68 68 68 68 68 68 68 68 68 68 68 68 68 68 68 68 68 68 68 68 68 68 68 68 68 68 68 68 68 68 68 68 68 68 68 68 68 68 68 68 68 68 68 68 68 68 </DataArray>
      </Cells>
      <CellData>
        <DataArray type="UInt8" Name="vtkGhostType" format="ascii" RangeMin="0" RangeMax="1">0 0 0 0 0 0 0 0 0 0 0 0 0 0 0 0 0 0 0 0 0 0 0 0 0 0 0 0 0 0 0 0 0 0 0 0 0 0 0 0 0 0 0 0 0 0 0 0 0 0 0 0 0 0 0 0 0 0 0 0 0 0 0 0 0 0 0 0 0 0 0 0 </DataArray>
        <DataArray type="Int64" IdType="1" Name="vtkOriginalCellIds" format="ascii" RangeMin="0" RangeMax="71">0 1 2 3 4 5 6 7 8 9 10 11 12 13 14 15 16 17 18 19 20 21 22 23 24 25 26 27 28 29 30 31 32 33 34 35 36 37 38 39 40 41 42 43 44 45 46 47 48 49 50 51 52 53 54 55 56 57 58 59 60 61 62 63 64 65 66 67 68 69 70 71 </DataArray>
      </CellData>
      <PointData Vectors="solution_wirebasket">
        <DataArray type="Int64" IdType="1" Name="vtkOriginalPointIds" format="ascii" RangeMin="0" RangeMax="223">0 1 2 3 4 5 6 7 8 9 10 11 12 13 14 15 16 17 18 19 20 21 22 23 24 25 26 27 28 29 30 31 32 33 34 35 36 37 38 39 40 41 42 43 44 45 46 47 48 49 50 51 52 53 54 55 56 57 58 59 60 61 62 63 64 65 66 67 68 69 70 71 72 73 74 75 76 77 78 79 80 81 82 83 84 85 86 87 88 89 90 91 92 93 94 95 96 97 98 99 100 101 102 103 104 105 106 107 108 109 110 111 112 113 114 115 116 117 118 119 120 121 122 123 124 125 126 127 128 129 130 131 132 133 134 135 136 137 138 139 140 141 142 143 144 145 146 147 148 149 150 151 152 153 154 155 156 157 158 159 160 161 162 163 164 165 166 167 168 169 170 171 172 173 174 175 176 177 178 179 180 181 182 183 184 185 186 187 188 189 190 191 192 193 194 195 196 197 198 199 200 201 202 203 204 205 206 207 208 209 210 211 212 213 214 215 216 217 218 219 220 221 222 223 </DataArray>
        <DataArray type="UInt8" Name="vtkGhostType" format="ascii" RangeMin="0" RangeMax="0">0 0 0 0 0 0 0 0 0 0 0 0 0 0 0 0 0 0 0 0 0 0 0 0 0 0 0 0 0 0 0 0 0 0 0 0 0 0 0 0 0 0 0 0 0 0 0 0 0 0 0 0 0 0 0 0 0 0 0 0 0 0 0 0 0 0 0 0 0 0 0 0 0 0 0 0 0 0 0 0 0 0 0 0 0 0 0 0 0 0 0 0 0 0 0 0 0 0 0 0 0 0 0 0 0 0 0 0 0 0 0 0 0 0 0 0 0 0 0 0 0 0 0 0 0 0 0 0 0 0 0 0 0 0 0 0 0 0 0 0 0 0 0 0 0 0 0 0 0 0 0 0 0 0 0 0 0 0 0 0 0 0 0 0 0 0 0 0 0 0 0 0 0 0 0 0 0 0 0 0 0 0 0 0 0 0 0 0 0 0 0 0 0 0 0 0 0 0 0 0 0 0 0 0 0 0 0 0 0 0 0 0 0 0 0 0 0 0 0 0 0 0 0 0 </DataArray>
        <DataArray type="Float64" Name="solution_wirebasket" format="ascii" NumberOfComponents="3">0.5587179428882588 0 0 0.5949276612201199 0 0 0.570787848998879 0 0 0.5828577551094997 0 0 0.7371000973604893 0 0 0.618178661045669 0 0 0.6776393792030794 0 0 1.429164101624998 0 0 0.9677880987819911 0 0 1.198476100203495 0 0 0.5949276612201196 0 0 0.7397665345475636 0 0 0.6432072856626009 0 0 0.6914869101050826 0 0 1.431297251374658 0 0 0.9702767734899277 0 0 1.200787012432293 0 0 1.429164101624995 0 0 1.3330390195885 0 0 1.326310837691941 0 0 0.7397665345475636 0 0 0.5948735633351174 0 0 0.6914688774767481 0 0 0.6431712204059328 0 0 1.431297251374655 0 0 0.9702767734899277 0 0 1.200787012432293 0 0 1.430236750570647 0 0 1.326385106168323 0 0 1.333306213253393 0 0 0.5948735633351174 0 0 0.558650320532006 0 0 0.5827991490674135 0 0 0.5707247347997099 0 0 0.7384409195450298 0 0 0.6185805202030149 0 0 0.6785107198740224 0 0 1.430236759372633 0 0 1.199638146096765 0 0 0.9690395328208978 0 0 0.7371000973604893 0 0 1.429164101624998 0 0 0.9677880987819911 0 0 1.198476100203496 0 0 0.5587847101288707 0 0 0.6776616349499497 0 0 0.6182231725394101 0 0 0.5947133624306559 0 0 0.5707609275627988 0 0 0.5827371449967274 0 0 1.429164101624995 0 0 1.430226401046848 0 0 1.332687775945847 0 0 1.325583888021429 0 0 0.7384279716377983 0 0 1.199626924577164 0 0 0.9690274481074816 0 0 0.5947133624306564 0 0 0.642618232166371 0 0 0.6905231019020849 0 0 1.430236759372633 0 0 1.430226396644793 0 0 1.32566447108775 0 0 1.332955786980397 0 0 0.7384409195450313 0 0 1.199638146096765 0 0 0.9690395328208978 0 0 0.5946618598625841 0 0 0.6905145663175496 0 0 0.642588213090066 0 0 1.430226401046848 0 0 0.7384279716377998 0 0 1.199626924577164 0 0 0.9690274481074816 0 0 0.5587170949419727 0 0 0.6785243460725254 0 0 0.6186207205072485 0 0 0.594661859862585 0 0 0.5826802715557147 0 0 0.5706986832488434 0 0 7.753769055821868e-18 0 0 2.398206797347061e-18 0 0 2.061458985288265e-17 0 0 2.572164159412158e-17 0 0 1.790574490899077e-17 0 0 1.28608207970608e-17 0 0 2.572164159412158e-17 0 0 0.5587179428882589 0 0 0.1862393142960863 0 0 0.3724786285921727 0 0 0.1862393142960863 0 0 0.3724786285921728 0 0 1.057817942083051e-16 0 0 0.5587179428882588 0 0 0.1862393142960863 0 0 0.3724786285921728 0 0 1.67708698984063e-17 0 0 3.257269369399153e-17 0 0 4.352939182511124e-17 0 0 0.7397665345475636 0 0 0.6190674734413604 0 0 0.6794170039944623 0 0 0.2465888448491879 0 0 0.4931776896983758 0 0 1.11058920042968e-16 0 0 0.7397665345475636 0 0 0.2465888448491879 0 0 0.4931776896983758 0 0 -1.442575261750379e-17 0 0 4.185529431518809e-17 0 0 2.31432630470613e-17 0 0 0.5586503205320058 0 0 0.6793944632090443 0 0 0.6190223918705251 0 0 0.1862167735106686 0 0 0.3724335470213373 0 0 2.161255458426428e-17 0 0 0.558650320532006 0 0 0.1862167735106686 0 0 0.3724335470213373 0 0 -2.842704555940592e-17 0 0 1.021535474742607e-17 0 0 -2.645153233397665e-18 0 0 7.88427750164386e-17 0 0 0.3724335470213374 0 0 0.1862167735106686 0 0 2.459444588736163e-16 0 0 -1.877758988094729e-16 0 0 2.398206797347061e-18 0 0 1.67091961492645e-17 0 0 3.013414825501022e-17 0 0 4.099216838750304e-17 0 0 0.5587179428882588 0 0 0.1862393142960863 0 0 0.3724786285921727 0 0 0.7371000973604893 0 0 0.2457000324534963 0 0 0.491400064906993 0 0 0.618178661045669 0 0 0.6776393792030794 0 0 0.558650320532006 0 0 0.7384409195450313 0 0 0.6185805202030149 0 0 0.6785107198740224 0 0 8.917988249258621e-17 0 0 0.3724335470213374 0 0 0.1862167735106686 0 0 7.345260048912844e-17 0 0 0.4922939463633544 0 0 0.2461469731816774 0 0 8.28504489100012e-16 0 0 -3.406389137834904e-16 0 0 1.67091961492645e-17 0 0 -1.421295348657355e-17 0 0 4.429104814226281e-17 0 0 3.343549889403049e-17 0 0 0.7371000973604893 0 0 0.2457000324534963 0 0 0.491400064906993 0 0 0.5587847101288704 0 0 0.1862615700429567 0 0 0.3725231400859138 0 0 0.6776616349499497 0 0 0.6182231725394101 0 0 0.7384409195450313 0 0 0.558717094941973 0 0 0.6785329780106788 0 0 0.6186250364763264 0 0 7.345260048912844e-17 0 0 0.4922939463633544 0 0 0.2461469731816774 0 0 4.310973096148588e-17 0 0 0.3724780632946488 0 0 0.186239031647324 0 0 9.286443741153906e-16 0 0 -3.143664814433618e-16 0 0 -1.421295348657355e-17 0 0 -2.843388400387176e-17 0 0 2.572225931518674e-17 0 0 5.1064340201738e-18 0 0 0.5587847101288707 0 0 0.1862615700429567 0 0 0.3725231400859138 0 0 9.435030126096889e-17 0 0 2.38241984084845e-16 0 0 -1.87834958102587e-16 0 0 0.3725231400859138 0 0 0.1862615700429568 0 0 0.5587847101288707 0 0 1.04689895444195e-16 0 0 0.3725231400859138 0 0 0.1862615700429568 0 0 0.7384279716377998 0 0 0.618665797298514 0 0 0.6785468844681563 0 0 9.393894842938166e-17 0 0 8.208583865308327e-16 0 0 -3.484183814528328e-16 0 0 0.4922853144251997 0 0 0.2461426572126002 0 0 0.7384279716377998 0 0 9.393894842938166e-17 0 0 0.4922853144251997 0 0 0.2461426572126002 0 0 0.558717094941973 0 0 0.6785243460725254 0 0 0.6186207205072485 0 0 4.311062940303145e-17 0 0 9.183857263228932e-16 0 0 -3.246112932360571e-16 0 0 0.3724780632946489 0 0 0.1862390316473242 0 0 0.558717094941973 0 0 6.360612280651995e-17 0 0 0.3724780632946489 0 0 0.1862390316473242 0 0 4.809806916518615e-17 0 0 0.3724780632946488 0 0 0.186239031647324 0 0 -3.876878644101611e-17 0 0 5.126174979902887e-16 0 0 -1.055332577876728e-16 0 0 5.281250125666951e-16 0 0 -9.77795004994696e-17 0 0 </DataArray>
      </PointData>
    </Piece>
  </UnstructuredGrid>
</VTKFile>
